Nd    ONCVPSP-4.0.1  r_core=   2.00095   1.60366   1.90745   1.60366
60.0000     14.0000      250626    zatom,zion,pspd
8      11   3     4   600     0    pspcod,pspxc,lmax,lloc,mmax,r2well
5.99000000 32.00000000  0.00000000    rchrg fchrg qchrg
2     2     2     2     0    nproj
1     1           extension_switch
0                         7.2483657273727E+00  4.5970193480982E-01
1  0.0000000000000E+00  6.7852501395294E-11 -3.0855072663538E-10
2  1.0000000000000E-02  3.5927183338252E-02 -3.2848800515236E-03
3  2.0000000000000E-02  7.1845980858000E-02 -6.6195239304830E-03
4  3.0000000000000E-02  1.0774782041830E-01 -1.0052977676023E-02
5  4.0000000000000E-02  1.4362375912656E-01 -1.3632859458604E-02
6  5.0000000000000E-02  1.7946430267849E-01 -1.7404664836261E-02
7  6.0000000000000E-02  2.1525923030837E-01 -2.1411094818907E-02
8  7.0000000000000E-02  2.5099742713974E-01 -2.5691413977719E-02
9  8.0000000000000E-02  2.8666672565818E-01 -3.0280845528157E-02
10  9.0000000000000E-02  3.2225375794474E-01 -3.5210009935019E-02
11  1.0000000000000E-01  3.5774382020948E-01 -4.0504413140307E-02
12  1.1000000000000E-01  3.9312075105209E-01 -4.6183990003960E-02
13  1.2000000000000E-01  4.2836682475052E-01 -5.2262707978613E-02
14  1.3000000000000E-01  4.6346266074084E-01 -5.8748235418203E-02
15  1.4000000000000E-01  4.9838715030327E-01 -6.5641678253020E-02
16  1.5000000000000E-01  5.3311740131138E-01 -7.2937388056619E-02
17  1.6000000000000E-01  5.6762870173634E-01 -8.0622843790701E-02
18  1.7000000000000E-01  6.0189450242612E-01 -8.8678608749734E-02
19  1.8000000000000E-01  6.3588641950299E-01 -9.7078363445161E-02
20  1.9000000000000E-01  6.6957425654358E-01 -1.0578901437813E-01
21  2.0000000000000E-01  7.0292604652429E-01 -1.1477087785689E-01
22  2.1000000000000E-01  7.3590811333470E-01 -1.2397793722905E-01
23  2.2000000000000E-01  7.6848515248248E-01 -1.3335817112773E-01
24  2.3000000000000E-01  8.0062033043855E-01 -1.4285394958154E-01
25  2.4000000000000E-01  8.3227540190115E-01 -1.5240249411992E-01
26  2.5000000000000E-01  8.6341084409437E-01 -1.6193639732432E-01
27  2.6000000000000E-01  8.9398600706197E-01 -1.7138419663940E-01
28  2.7000000000000E-01  9.2395927877212E-01 -1.8067099667348E-01
29  2.8000000000000E-01  9.5328826371480E-01 -1.8971913369056E-01
30  2.9000000000000E-01  9.8192997355180E-01 -1.9844887553111E-01
31  3.0000000000000E-01  1.0098410282710E+00 -2.0677914980410E-01
32  3.1000000000000E-01  1.0369778662025E+00 -2.1462829286780E-01
33  3.2000000000000E-01  1.0632969611765E+00 -2.2191481187104E-01
34  3.3000000000000E-01  1.0887550450386E+00 -2.2855815195711E-01
35  3.4000000000000E-01  1.1133093336933E+00 -2.3447946064605E-01
36  3.5000000000000E-01  1.1369177548179E+00 -2.3960234140623E-01
37  3.6000000000000E-01  1.1595391753747E+00 -2.4385358850426E-01
38  3.7000000000000E-01  1.1811336270575E+00 -2.4716389538296E-01
39  3.8000000000000E-01  1.2016625278294E+00 -2.4946852905934E-01
40  3.9000000000000E-01  1.2210888977469E+00 -2.5070796335539E-01
41  4.0000000000000E-01  1.2393775673251E+00 -2.5082846417245E-01
42  4.1000000000000E-01  1.2564953767663E+00 -2.4978262048966E-01
43  4.2000000000000E-01  1.2724113644626E+00 -2.4752981530582E-01
44  4.3000000000000E-01  1.2870969432870E+00 -2.4403663134487E-01
45  4.4000000000000E-01  1.3005260632958E+00 -2.3927718700416E-01
46  4.5000000000000E-01  1.3126753595990E+00 -2.3323339873335E-01
47  4.6000000000000E-01  1.3235242842856E+00 -2.2589516678484E-01
48  4.7000000000000E-01  1.3330552214435E+00 -2.1726048206481E-01
49  4.8000000000000E-01  1.3412535844634E+00 -2.0733545263136E-01
50  4.9000000000000E-01  1.3481078949820E+00 -1.9613424922176E-01
51  5.0000000000000E-01  1.3536098429801E+00 -1.8367897003876E-01
52  5.1000000000000E-01  1.3577543277274E+00 -1.6999942587589E-01
53  5.2000000000000E-01  1.3605394794296E+00 -1.5513284750414E-01
54  5.3000000000000E-01  1.3619666616084E+00 -1.3912351807117E-01
55  5.4000000000000E-01  1.3620404544118E+00 -1.2202233406734E-01
56  5.5000000000000E-01  1.3607686192176E+00 -1.0388629918442E-01
57  5.6000000000000E-01  1.3581620450528E+00 -8.4777956122398E-02
58  5.7000000000000E-01  1.3542346775045E+00 -6.4764762082568E-02
59  5.8000000000000E-01  1.3490034309441E+00 -4.3918414308458E-02
60  5.9000000000000E-01  1.3424880850205E+00 -2.2314132600226E-02
61  6.0000000000000E-01  1.3347111665037E+00 -2.9906219974693E-05
62  6.1000000000000E-01  1.3256978176726E+00  2.2854286976273E-02
63  6.2000000000000E-01  1.3154756525405E+00  4.6257281005108E-02
64  6.3000000000000E-01  1.3040746022965E+00  7.0097533391747E-02
65  6.4000000000000E-01  1.2915267514149E+00  9.4293939377103E-02
66  6.5000000000000E-01  1.2778661659354E+00  1.1876664001899E-01
67  6.6000000000000E-01  1.2631287154639E+00  1.4343781551947E-01
68  6.7000000000000E-01  1.2473518904622E+00  1.6823245521215E-01
69  6.8000000000000E-01  1.2305746164064E+00  1.9307909583226E-01
70  6.9000000000000E-01  1.2128370663875E+00  2.1791051997083E-01
71  7.0000000000000E-01  1.1941804737031E+00  2.4266440697667E-01
72  7.1000000000000E-01  1.1746469459515E+00  2.6728392901523E-01
73  7.2000000000000E-01  1.1542792820921E+00  2.9171828551389E-01
74  7.3000000000000E-01  1.1331207938640E+00  3.1592316981777E-01
75  7.4000000000000E-01  1.1112151328830E+00  3.3986116253869E-01
76  7.5000000000000E-01  1.0886061246444E+00  3.6350204679728E-01
77  7.6000000000000E-01  1.0653376105612E+00  3.8682304132854E-01
78  7.7000000000000E-01  1.0414532990576E+00  4.0980894823212E-01
79  7.8000000000000E-01  1.0169966266231E+00  4.3245221299689E-01
80  7.9000000000000E-01  9.9201062960787E-01  4.5475289530140E-01
81  8.0000000000000E-01  9.6653782741672E-01  4.7671854998161E-01
82  8.1000000000000E-01  9.4062011762451E-01  4.9836401845476E-01
83  8.2000000000000E-01  9.1429868340858E-01  5.1971113178192E-01
84  8.3000000000000E-01  8.8761391355882E-01  5.4078832743678E-01
85  8.4000000000000E-01  8.6060533519762E-01  5.6163018271100E-01
86  8.5000000000000E-01  8.3331155921378E-01  5.8227686852044E-01
87  8.6000000000000E-01  8.0577023829152E-01  6.0277352817434E-01
88  8.7000000000000E-01  7.7801803729795E-01  6.2316958642086E-01
89  8.8000000000000E-01  7.5009061568159E-01  6.4351799478134E-01
90  8.9000000000000E-01  7.2202262143081E-01  6.6387441982724E-01
91  9.0000000000000E-01  6.9384769604658E-01  6.8429638162869E-01
92  9.1000000000000E-01  6.6559848989822E-01  7.0484235011088E-01
93  9.2000000000000E-01  6.3730668725525E-01  7.2557080748831E-01
94  9.3000000000000E-01  6.0900304022288E-01  7.4653928530379E-01
95  9.4000000000000E-01  5.8071741075372E-01  7.6780338487975E-01
96  9.5000000000000E-01  5.5247881986370E-01  7.8941579018952E-01
97  9.6000000000000E-01  5.2431550314575E-01  8.1142528227956E-01
98  9.7000000000000E-01  4.9625497165068E-01  8.3387576441789E-01
99  9.8000000000000E-01  4.6832407718948E-01  8.5680530711496E-01
100  9.9000000000000E-01  4.4054908110546E-01  8.8024522206047E-01
101  1.0000000000000E+00  4.1295572556622E-01  9.0421917385002E-01
102  1.0100000000000E+00  3.8556930643444E-01  9.2874233814226E-01
103  1.0200000000000E+00  3.5841474679123E-01  9.5382061459608E-01
104  1.0300000000000E+00  3.3151667020565E-01  9.7944990259452E-01
105  1.0400000000000E+00  3.0489947286689E-01  1.0056154473743E+00
106  1.0500000000000E+00  2.7858739372162E-01  1.0322912637528E+00
107  1.0600000000000E+00  2.5260458178561E-01  1.0594396441870E+00
108  1.0700000000000E+00  2.2697515982545E-01  1.0870107574148E+00
109  1.0800000000000E+00  2.0172328363142E-01  1.1149423434310E+00
110  1.0900000000000E+00  1.7687319612570E-01  1.1431595100350E+00
111  1.1000000000000E+00  1.5244927556974E-01  1.1715746356737E+00
112  1.1100000000000E+00  1.2847607714971E-01  1.2000873827833E+00
113  1.1200000000000E+00  1.0497836723011E-01  1.2285848253210E+00
114  1.1300000000000E+00  8.1981149570398E-02  1.2569416936749E+00
115  1.1400000000000E+00  5.9509682799775E-02  1.2850207396415E+00
116  1.1500000000000E+00  3.7589488439686E-02  1.3126732236801E+00
117  1.1600000000000E+00  1.6246348753195E-02  1.3397395261771E+00
118  1.1700000000000E+00 -4.4937063141454E-03  1.3660498839918E+00
119  1.1800000000000E+00 -2.4604423855341E-02  1.3914252530901E+00
120  1.1900000000000E+00 -4.4059365157697E-02  1.4156782976174E+00
121  1.2000000000000E+00 -6.2831956085876E-02  1.4386145052890E+00
122  1.2100000000000E+00 -8.0895551502149E-02  1.4600334284900E+00
123  1.2200000000000E+00 -9.8223514546625E-02  1.4797300499646E+00
124  1.2300000000000E+00 -1.1478931160503E-01  1.4974962714104E+00
125  1.2400000000000E+00 -1.3056662378588E-01  1.5131225226857E+00
126  1.2500000000000E+00 -1.4552947570797E-01  1.5263994886414E+00
127  1.2600000000000E+00 -1.5965238235945E-01  1.5371199498080E+00
128  1.2700000000000E+00 -1.7291051472711E-01  1.5450807322701E+00
129  1.2800000000000E+00 -1.8527988480314E-01  1.5500847610193E+00
130  1.2900000000000E+00 -1.9673755045169E-01  1.5519432098775E+00
131  1.3000000000000E+00 -2.0726184045576E-01  1.5504777396959E+00
132  1.3100000000000E+00 -2.1683259985504E-01  1.5455228149212E+00
133  1.3200000000000E+00 -2.2543145542788E-01  1.5369280867656E+00
134  1.3300000000000E+00 -2.3304210085469E-01  1.5245608290888E+00
135  1.3400000000000E+00 -2.3965060072054E-01  1.5083084106485E+00
136  1.3500000000000E+00 -2.4524571206469E-01  1.4880807845879E+00
137  1.3600000000000E+00 -2.4981922165669E-01  1.4638129728517E+00
138  1.3700000000000E+00 -2.5336629656940E-01  1.4354675196524E+00
139  1.3800000000000E+00 -2.5588584491118E-01  1.4030368840440E+00
140  1.3900000000000E+00 -2.5738088277842E-01  1.3665457371441E+00
141  1.4000000000000E+00 -2.5785890257593E-01  1.3260531244665E+00
142  1.4100000000000E+00 -2.5733223682806E-01  1.2816544481991E+00
143  1.4200000000000E+00 -2.5581841045189E-01  1.2334832180034E+00
144  1.4300000000000E+00 -2.5334047318038E-01  1.1817125119890E+00
145  1.4400000000000E+00 -2.4992730240218E-01  1.1265560819135E+00
146  1.4500000000000E+00 -2.4561386511292E-01  1.0682690282881E+00
147  1.4600000000000E+00 -2.4044142593858E-01  1.0071479618835E+00
148  1.4700000000000E+00 -2.3445768630447E-01  9.4353055817944E-01
149  1.4800000000000E+00 -2.2771683773507E-01  8.7779440031089E-01
150  1.4900000000000E+00 -2.2027951001806E-01  8.1035499426135E-01
151  1.5000000000000E+00 -2.1221259250379E-01  7.4166282715629E-01
152  1.5100000000000E+00 -2.0358890414413E-01  6.7219932557612E-01
153  1.5200000000000E+00 -1.9448668498987E-01  6.0247155574173E-01
154  1.5300000000000E+00 -1.8498887874530E-01  5.3300549115014E-01
155  1.5400000000000E+00 -1.7518217262192E-01  4.6433765573346E-01
156  1.5500000000000E+00 -1.6515575711761E-01  3.9700493176412E-01
157  1.5600000000000E+00 -1.5499976445418E-01  3.3153230143156E-01
158  1.5700000000000E+00 -1.4480334024490E-01  2.6841826931391E-01
159  1.5800000000000E+00 -1.3465229712556E-01  2.0811767801472E-01
160  1.5900000000000E+00 -1.2462629555211E-01  1.5102161753593E-01
161  1.6000000000000E+00 -1.1479556726063E-01  9.7434723979380E-02
162  1.6100000000000E+00 -1.0521678838596E-01  4.7546766948711E-02
163  1.6200000000000E+00 -9.5933733733638E-02  1.4461933106688E-03
164  1.6300000000000E+00 -8.6983696878479E-02 -4.0820050492076E-02
165  1.6400000000000E+00 -7.8399943082725E-02 -7.9224328084416E-02
166  1.6500000000000E+00 -7.0211388061118E-02 -1.1376060516567E-01
167  1.6600000000000E+00 -6.2442580930056E-02 -1.4444417874265E-01
168  1.6700000000000E+00 -5.5113670536163E-02 -1.7131168528342E-01
169  1.6800000000000E+00 -4.8240405457665E-02 -1.9442093568815E-01
170  1.6900000000000E+00 -4.1834168965187E-02 -2.1385056844924E-01
171  1.7000000000000E+00 -3.5902047793297E-02 -2.2969953056374E-01
172  1.7100000000000E+00 -3.0446934249261E-02 -2.4208638877747E-01
173  1.7200000000000E+00 -2.5467660924180E-02 -2.5114847500723E-01
174  1.7300000000000E+00 -2.0959166941240E-02 -2.5704087160578E-01
175  1.7400000000000E+00 -1.6912694405878E-02 -2.5993524350175E-01
176  1.7500000000000E+00 -1.3316013431880E-02 -2.6001852579684E-01
177  1.7600000000000E+00 -1.0153673863146E-02 -2.5749147670912E-01
178  1.7700000000000E+00 -7.4072815660254E-03 -2.5256710702540E-01
179  1.7800000000000E+00 -5.0557969092336E-03 -2.4546899862881E-01
180  1.7900000000000E+00 -3.0758528674137E-03 -2.3642952555192E-01
181  1.8000000000000E+00 -1.4420900088936E-03 -2.2568799190672E-01
182  1.8100000000000E+00 -1.2750531935777E-04 -2.1348870290889E-01
183  1.8200000000000E+00  8.9618791990108E-04 -2.0007898311924E-01
184  1.8300000000000E+00  1.6581925689788E-03 -1.8570715992371E-01
185  1.8400000000000E+00  2.1882562174198E-03 -1.7062053336386E-01
186  1.8500000000000E+00  2.5162975182706E-03 -1.5506333779582E-01
187  1.8600000000000E+00  2.6720356857458E-03 -1.3927472733055E-01
188  1.8700000000000E+00  2.6846270510896E-03 -1.2348680042432E-01
189  1.8800000000000E+00  2.5822911172849E-03 -1.0792260223136E-01
190  1.8900000000000E+00  2.3920226794051E-03 -9.2794475513903E-02
191  1.9000000000000E+00  2.1391450683285E-03 -7.8301857016900E-02
192  1.9100000000000E+00  1.8454158478032E-03 -6.4623386952053E-02
193  1.9200000000000E+00  1.5302011876411E-03 -5.1920902607231E-02
194  1.9300000000000E+00  1.2137032157414E-03 -4.0351652022441E-02
195  1.9400000000000E+00  9.1311140084801E-04 -3.0053282475751E-02
196  1.9500000000000E+00  6.4257651832952E-04 -2.1143364233111E-02
197  1.9600000000000E+00  4.1298417466748E-04 -1.3718217639691E-02
198  1.9700000000000E+00  2.3186737431651E-04 -7.8545189975904E-03
199  1.9800000000000E+00  1.0275499104010E-04 -3.5867878453421E-03
200  1.9900000000000E+00  2.7163019518713E-05 -9.8965008322804E-04
201  2.0000000000000E+00  7.8351941406979E-07 -3.0206048443115E-05
202  2.0100000000000E+00 -7.6479980650385E-07  2.9992726437527E-05
203  2.0200000000000E+00  4.2447214117540E-07 -1.5974914606378E-05
204  2.03 -0.  0.
205  2.04 -0. -0.
206  2.05  0.  0.
207  2.06  0.  0.
208  2.07  0.  0.
209  2.08  0.  0.
210  2.09  0.  0.
211  2.10  0.  0.
212  2.11  0.  0.
213  2.12  0.  0.
214  2.13  0.  0.
215  2.14  0.  0.
216  2.15  0.  0.
217  2.16  0.  0.
218  2.17  0.  0.
219  2.18  0.  0.
220  2.19  0.  0.
221  2.20  0.  0.
222  2.21  0.  0.
223  2.22  0.  0.
224  2.23  0.  0.
225  2.24  0.  0.
226  2.25  0.  0.
227  2.26  0.  0.
228  2.27  0.  0.
229  2.28  0.  0.
230  2.29  0.  0.
231  2.30  0.  0.
232  2.31  0.  0.
233  2.32  0.  0.
234  2.33  0.  0.
235  2.34  0.  0.
236  2.35  0.  0.
237  2.36  0.  0.
238  2.37  0.  0.
239  2.38  0.  0.
240  2.39  0.  0.
241  2.40  0.  0.
242  2.41  0.  0.
243  2.42  0.  0.
244  2.43  0.  0.
245  2.44  0.  0.
246  2.45  0.  0.
247  2.46  0.  0.
248  2.47  0.  0.
249  2.48  0.  0.
250  2.49  0.  0.
251  2.50  0.  0.
252  2.51  0.  0.
253  2.52  0.  0.
254  2.53  0.  0.
255  2.54  0.  0.
256  2.55  0.  0.
257  2.56  0.  0.
258  2.57  0.  0.
259  2.58  0.  0.
260  2.59  0.  0.
261  2.60  0.  0.
262  2.61  0.  0.
263  2.62  0.  0.
264  2.63  0.  0.
265  2.64  0.  0.
266  2.65  0.  0.
267  2.66  0.  0.
268  2.67  0.  0.
269  2.68  0.  0.
270  2.69  0.  0.
271  2.70  0.  0.
272  2.71  0.  0.
273  2.72  0.  0.
274  2.73  0.  0.
275  2.74  0.  0.
276  2.75  0.  0.
277  2.76  0.  0.
278  2.77  0.  0.
279  2.78  0.  0.
280  2.79  0.  0.
281  2.80  0.  0.
282  2.81  0.  0.
283  2.82  0.  0.
284  2.83  0.  0.
285  2.84  0.  0.
286  2.85  0.  0.
287  2.86  0.  0.
288  2.87  0.  0.
289  2.88  0.  0.
290  2.89  0.  0.
291  2.90  0.  0.
292  2.91  0.  0.
293  2.92  0.  0.
294  2.93  0.  0.
295  2.94  0.  0.
296  2.95  0.  0.
297  2.96  0.  0.
298  2.97  0.  0.
299  2.98  0.  0.
300  2.99  0.  0.
301  3.00  0.  0.
302  3.01  0.  0.
303  3.02  0.  0.
304  3.03  0.  0.
305  3.04  0.  0.
306  3.05  0.  0.
307  3.06  0.  0.
308  3.07  0.  0.
309  3.08  0.  0.
310  3.09  0.  0.
311  3.10  0.  0.
312  3.11  0.  0.
313  3.12  0.  0.
314  3.13  0.  0.
315  3.14  0.  0.
316  3.15  0.  0.
317  3.16  0.  0.
318  3.17  0.  0.
319  3.18  0.  0.
320  3.19  0.  0.
321  3.20  0.  0.
322  3.21  0.  0.
323  3.22  0.  0.
324  3.23  0.  0.
325  3.24  0.  0.
326  3.25  0.  0.
327  3.26  0.  0.
328  3.27  0.  0.
329  3.28  0.  0.
330  3.29  0.  0.
331  3.30  0.  0.
332  3.31  0.  0.
333  3.32  0.  0.
334  3.33  0.  0.
335  3.34  0.  0.
336  3.35  0.  0.
337  3.36  0.  0.
338  3.37  0.  0.
339  3.38  0.  0.
340  3.39  0.  0.
341  3.40  0.  0.
342  3.41  0.  0.
343  3.42  0.  0.
344  3.43  0.  0.
345  3.44  0.  0.
346  3.45  0.  0.
347  3.46  0.  0.
348  3.47  0.  0.
349  3.48  0.  0.
350  3.49  0.  0.
351  3.50  0.  0.
352  3.51  0.  0.
353  3.52  0.  0.
354  3.53  0.  0.
355  3.54  0.  0.
356  3.55  0.  0.
357  3.56  0.  0.
358  3.57  0.  0.
359  3.58  0.  0.
360  3.59  0.  0.
361  3.60  0.  0.
362  3.61  0.  0.
363  3.62  0.  0.
364  3.63  0.  0.
365  3.64  0.  0.
366  3.65  0.  0.
367  3.66  0.  0.
368  3.67  0.  0.
369  3.68  0.  0.
370  3.69  0.  0.
371  3.70  0.  0.
372  3.71  0.  0.
373  3.72  0.  0.
374  3.73  0.  0.
375  3.74  0.  0.
376  3.75  0.  0.
377  3.76  0.  0.
378  3.77  0.  0.
379  3.78  0.  0.
380  3.79  0.  0.
381  3.80  0.  0.
382  3.81  0.  0.
383  3.82  0.  0.
384  3.83  0.  0.
385  3.84  0.  0.
386  3.85  0.  0.
387  3.86  0.  0.
388  3.87  0.  0.
389  3.88  0.  0.
390  3.89  0.  0.
391  3.90  0.  0.
392  3.91  0.  0.
393  3.92  0.  0.
394  3.93  0.  0.
395  3.94  0.  0.
396  3.95  0.  0.
397  3.96  0.  0.
398  3.97  0.  0.
399  3.98  0.  0.
400  3.99  0.  0.
401  4.00  0.  0.
402  4.01  0.  0.
403  4.02  0.  0.
404  4.03  0.  0.
405  4.04  0.  0.
406  4.05  0.  0.
407  4.06  0.  0.
408  4.07  0.  0.
409  4.08  0.  0.
410  4.09  0.  0.
411  4.10  0.  0.
412  4.11  0.  0.
413  4.12  0.  0.
414  4.13  0.  0.
415  4.14  0.  0.
416  4.15  0.  0.
417  4.16  0.  0.
418  4.17  0.  0.
419  4.18  0.  0.
420  4.19  0.  0.
421  4.20  0.  0.
422  4.21  0.  0.
423  4.22  0.  0.
424  4.23  0.  0.
425  4.24  0.  0.
426  4.25  0.  0.
427  4.26  0.  0.
428  4.27  0.  0.
429  4.28  0.  0.
430  4.29  0.  0.
431  4.30  0.  0.
432  4.31  0.  0.
433  4.32  0.  0.
434  4.33  0.  0.
435  4.34  0.  0.
436  4.35  0.  0.
437  4.36  0.  0.
438  4.37  0.  0.
439  4.38  0.  0.
440  4.39  0.  0.
441  4.40  0.  0.
442  4.41  0.  0.
443  4.42  0.  0.
444  4.43  0.  0.
445  4.44  0.  0.
446  4.45  0.  0.
447  4.46  0.  0.
448  4.47  0.  0.
449  4.48  0.  0.
450  4.49  0.  0.
451  4.50  0.  0.
452  4.51  0.  0.
453  4.52  0.  0.
454  4.53  0.  0.
455  4.54  0.  0.
456  4.55  0.  0.
457  4.56  0.  0.
458  4.57  0.  0.
459  4.58  0.  0.
460  4.59  0.  0.
461  4.60  0.  0.
462  4.61  0.  0.
463  4.62  0.  0.
464  4.63  0.  0.
465  4.64  0.  0.
466  4.65  0.  0.
467  4.66  0.  0.
468  4.67  0.  0.
469  4.68  0.  0.
470  4.69  0.  0.
471  4.70  0.  0.
472  4.71  0.  0.
473  4.72  0.  0.
474  4.73  0.  0.
475  4.74  0.  0.
476  4.75  0.  0.
477  4.76  0.  0.
478  4.77  0.  0.
479  4.78  0.  0.
480  4.79  0.  0.
481  4.80  0.  0.
482  4.81  0.  0.
483  4.82  0.  0.
484  4.83  0.  0.
485  4.84  0.  0.
486  4.85  0.  0.
487  4.86  0.  0.
488  4.87  0.  0.
489  4.88  0.  0.
490  4.89  0.  0.
491  4.90  0.  0.
492  4.91  0.  0.
493  4.92  0.  0.
494  4.93  0.  0.
495  4.94  0.  0.
496  4.95  0.  0.
497  4.96  0.  0.
498  4.97  0.  0.
499  4.98  0.  0.
500  4.99  0.  0.
501  5.00  0.  0.
502  5.01  0.  0.
503  5.02  0.  0.
504  5.03  0.  0.
505  5.04  0.  0.
506  5.05  0.  0.
507  5.06  0.  0.
508  5.07  0.  0.
509  5.08  0.  0.
510  5.09  0.  0.
511  5.10  0.  0.
512  5.11  0.  0.
513  5.12  0.  0.
514  5.13  0.  0.
515  5.14  0.  0.
516  5.15  0.  0.
517  5.16  0.  0.
518  5.17  0.  0.
519  5.18  0.  0.
520  5.19  0.  0.
521  5.20  0.  0.
522  5.21  0.  0.
523  5.22  0.  0.
524  5.23  0.  0.
525  5.24  0.  0.
526  5.25  0.  0.
527  5.26  0.  0.
528  5.27  0.  0.
529  5.28  0.  0.
530  5.29  0.  0.
531  5.30  0.  0.
532  5.31  0.  0.
533  5.32  0.  0.
534  5.33  0.  0.
535  5.34  0.  0.
536  5.35  0.  0.
537  5.36  0.  0.
538  5.37  0.  0.
539  5.38  0.  0.
540  5.39  0.  0.
541  5.40  0.  0.
542  5.41  0.  0.
543  5.42  0.  0.
544  5.43  0.  0.
545  5.44  0.  0.
546  5.45  0.  0.
547  5.46  0.  0.
548  5.47  0.  0.
549  5.48  0.  0.
550  5.49  0.  0.
551  5.50  0.  0.
552  5.51  0.  0.
553  5.52  0.  0.
554  5.53  0.  0.
555  5.54  0.  0.
556  5.55  0.  0.
557  5.56  0.  0.
558  5.57  0.  0.
559  5.58  0.  0.
560  5.59  0.  0.
561  5.60  0.  0.
562  5.61  0.  0.
563  5.62  0.  0.
564  5.63  0.  0.
565  5.64  0.  0.
566  5.65  0.  0.
567  5.66  0.  0.
568  5.67  0.  0.
569  5.68  0.  0.
570  5.69  0.  0.
571  5.70  0.  0.
572  5.71  0.  0.
573  5.72  0.  0.
574  5.73  0.  0.
575  5.74  0.  0.
576  5.75  0.  0.
577  5.76  0.  0.
578  5.77  0.  0.
579  5.78  0.  0.
580  5.79  0.  0.
581  5.80  0.  0.
582  5.81  0.  0.
583  5.82  0.  0.
584  5.83  0.  0.
585  5.84  0.  0.
586  5.85  0.  0.
587  5.86  0.  0.
588  5.87  0.  0.
589  5.88  0.  0.
590  5.89  0.  0.
591  5.90  0.  0.
592  5.91  0.  0.
593  5.92  0.  0.
594  5.93  0.  0.
595  5.94  0.  0.
596  5.95  0.  0.
597  5.96  0.  0.
598  5.97  0.  0.
599  5.98  0.  0.
600  5.99  0.  0.
1                         4.7450421437204E+00  8.3380437335830E-01
1  0.0000000000000E+00  1.3002756954483E-08 -5.1757148289422E-08
2  1.0000000000000E-02  1.3940927318697E-03 -2.5316560538443E-03
3  2.0000000000000E-02  5.5572494165480E-03 -1.0055895019696E-02
4  3.0000000000000E-02  1.2432487538238E-02 -2.2362047446359E-02
5  4.0000000000000E-02  2.1926101952701E-02 -3.9104027508148E-02
6  5.0000000000000E-02  3.3909536749443E-02 -5.9807771646015E-02
7  6.0000000000000E-02  4.8221952974846E-02 -8.3881442299545E-02
8  7.0000000000000E-02  6.4673440576909E-02 -1.1062819129480E-01
9  8.0000000000000E-02  8.3048809929473E-02 -1.3926122569585E-01
10  9.0000000000000E-02  1.0311188655821E-01 -1.6892087219108E-01
11  1.0000000000000E-01  1.2461022245352E-01 -1.9869329528721E-01
12  1.1000000000000E-01  1.4728012881928E-01 -2.2763049052682E-01
13  1.2000000000000E-01  1.7085192844135E-01 -2.5477114730440E-01
14  1.3000000000000E-01  1.9505532119924E-01 -2.7916195716426E-01
15  1.4000000000000E-01  2.1962475368469E-01 -2.9987893310103E-01
16  1.5000000000000E-01  2.4430468348619E-01 -3.1604830357096E-01
17  1.6000000000000E-01  2.6885463046303E-01 -3.2686655171634E-01
18  1.7000000000000E-01  2.9305391123690E-01 -3.3161918559545E-01
19  1.8000000000000E-01  3.1670595910420E-01 -3.2969784872509E-01
20  1.9000000000000E-01  3.3964213950755E-01 -3.2061541154695E-01
21  2.0000000000000E-01  3.6172498095157E-01 -3.0401872294042E-01
22  2.1000000000000E-01  3.8285075262301E-01 -2.7969874589781E-01
23  2.2000000000000E-01  4.0295133276134E-01 -2.4759785210077E-01
24  2.3000000000000E-01  4.2199532577977E-01 -2.0781410542655E-01
25  2.4000000000000E-01  4.3998840099032E-01 -1.6060242331214E-01
26  2.5000000000000E-01  4.5697284125361E-01 -1.0637256628345E-01
27  2.6000000000000E-01  4.7302630565586E-01 -4.5683968632860E-02
28  2.7000000000000E-01  4.8825982610505E-01  2.0762514010837E-02
29  2.8000000000000E-01  5.0281507322730E-01  9.2135802849977E-02
30  2.9000000000000E-01  5.1686094182931E-01  1.6748854316437E-01
31  3.0000000000000E-01  5.3058952018006E-01  2.4577354819072E-01
32  3.1000000000000E-01  5.4421152017573E-01  3.2586243600463E-01
33  3.2000000000000E-01  5.5795125683093E-01  4.0656611021264E-01
34  3.3000000000000E-01  5.7204127525509E-01  4.8665669623631E-01
35  3.4000000000000E-01  5.8671673112634E-01  5.6489051327807E-01
36  3.5000000000000E-01  6.0220963650127E-01  6.4003163835692E-01
37  3.6000000000000E-01  6.1874308647077E-01  7.1087560359929E-01
38  3.7000000000000E-01  6.3652558360412E-01  7.7627276161541E-01
39  3.8000000000000E-01  6.5574557627148E-01  8.3515085646213E-01
40  3.9000000000000E-01  6.7656632380014E-01  8.8653634939985E-01
41  4.0000000000000E-01  6.9912119604592E-01  9.2957406922437E-01
42  4.1000000000000E-01  7.2350950743633E-01  9.6354478605997E-01
43  4.2000000000000E-01  7.4979297599564E-01  9.8788034463199E-01
44  4.3000000000000E-01  7.7799288646393E-01  1.0021760375354E+00
45  4.4000000000000E-01  8.0808802357901E-01  1.0061999500743E+00
46  4.5000000000000E-01  8.4001342714060E-01  9.9989906492510E-01
47  4.6000000000000E-01  8.7366000488969E-01  9.8340197612559E-01
48  4.7000000000000E-01  9.0887502280445E-01  9.5701812655774E-01
49  4.8000000000000E-01  9.4546347544748E-01  9.2123354996087E-01
50  4.9000000000000E-01  9.8319032182255E-01  8.7670316630444E-01
51  5.0000000000000E-01  1.0217835551403E+00  8.2423974676934E-01
52  5.1000000000000E-01  1.0609380582838E+00  7.6479973033033E-01
53  5.2000000000000E-01  1.1003201809288E+00  6.9946613671993E-01
54  5.3000000000000E-01  1.1395729595251E+00  6.2942887915149E-01
55  5.4000000000000E-01  1.1783218879734E+00  5.5596283342649E-01
56  5.5000000000000E-01  1.2161811351129E+00  4.8040406687505E-01
57  5.6000000000000E-01  1.2527600953021E+00  4.0412467002993E-01
58  5.7000000000000E-01  1.2876701506411E+00  3.2850666518723E-01
59  5.8000000000000E-01  1.3205315179111E+00  2.5491548839540E-01
60  5.9000000000000E-01  1.3509800502249E+00  1.8467355442916E-01
61  6.0000000000000E-01  1.3786738627698E+00  1.1903441761814E-01
62  6.1000000000000E-01  1.4032996539189E+00  5.9158034862469E-02
63  6.2000000000000E-01  1.4245785973694E+00  6.0876208200422E-03
64  6.3000000000000E-01  1.4422716877849E+00 -3.9271440678748E-02
65  6.4000000000000E-01  1.4561844315551E+00 -7.6170200031960E-02
66  6.5000000000000E-01  1.4661707855947E+00 -1.0403187479887E-01
67  6.6000000000000E-01  1.4721362603832E+00 -1.2246437836934E-01
68  6.7000000000000E-01  1.4740401184653E+00 -1.3126936896116E-01
69  6.8000000000000E-01  1.4718966161129E+00 -1.3044760775820E-01
70  6.9000000000000E-01  1.4657752534983E+00 -1.2020048389209E-01
71  7.0000000000000E-01  1.4558000172123E+00 -1.0092763623503E-01
72  7.1000000000000E-01  1.4421476179363E+00 -7.3220676276532E-02
73  7.2000000000000E-01  1.4250447451916E+00 -3.7853091278244E-02
74  7.3000000000000E-01  1.4047643799666E+00  4.2335189662587E-03
75  7.4000000000000E-01  1.3816212243156E+00  5.1946646542255E-02
76  7.5000000000000E-01  1.3559663243649E+00  1.0406322748684E-01
77  7.6000000000000E-01  1.3281809792196E+00  1.5925278468793E-01
78  7.7000000000000E-01  1.2986700427201E+00  2.1610294765684E-01
79  7.8000000000000E-01  1.2678547375578E+00  2.7314688546063E-01
80  7.9000000000000E-01  1.2361651116718E+00  3.2889214770621E-01
81  8.0000000000000E-01  1.2040322748934E+00  3.8185037631031E-01
82  8.1000000000000E-01  1.1718805593103E+00  4.3056732855719E-01
83  8.2000000000000E-01  1.1401197496561E+00  4.7365264015182E-01
84  8.3000000000000E-01  1.1091375301249E+00  5.0980875593565E-01
85  8.4000000000000E-01  1.0792922913297E+00  5.3785846575684E-01
86  8.5000000000000E-01  1.0509064356990E+00  5.5677050358475E-01
87  8.6000000000000E-01  1.0242603115235E+00  5.6568269902753E-01
88  8.7000000000000E-01  9.9958689524096E-01  5.6392221145180E-01
89  8.8000000000000E-01  9.7706732858108E-01  5.5102242721732E-01
90  8.9000000000000E-01  9.5682740209277E-01  5.2673615924891E-01
91  9.0000000000000E-01  9.3893505962660E-01  4.9104485422874E-01
92  9.1000000000000E-01  9.2339897984256E-01  4.4416358491012E-01
93  9.2000000000000E-01  9.1016827110065E-01  3.8654168211170E-01
94  9.3000000000000E-01  8.9913329553135E-01  3.1885894142654E-01
95  9.4000000000000E-01  8.9012761705700E-01  2.4201742208097E-01
96  9.5000000000000E-01  8.8293104703905E-01  1.5712893815523E-01
97  9.6000000000000E-01  8.7727374045742E-01  6.5498423974422E-02
98  9.7000000000000E-01  8.7284127547863E-01 -3.1396565644012E-02
99  9.8000000000000E-01  8.6928063032862E-01 -1.3192988497056E-01
100  9.9000000000000E-01  8.6620695391199E-01 -2.3435395248444E-01
101  1.0000000000000E+00  8.6321101096014E-01 -3.3682956530273E-01
102  1.0100000000000E+00  8.5986716893744E-01 -4.3745785292141E-01
103  1.0200000000000E+00  8.5574178277595E-01 -5.3431380582625E-01
104  1.0300000000000E+00  8.5040182495694E-01 -6.2548078024771E-01
105  1.0400000000000E+00  8.4342360268441E-01 -7.0908535690368E-01
106  1.0500000000000E+00  8.3440140104475E-01 -7.8333191956602E-01
107  1.0600000000000E+00  8.2295589116301E-01 -8.4653631890131E-01
108  1.0700000000000E+00  8.0874214548961E-01 -8.9715799843658E-01
109  1.0800000000000E+00  7.9145710841618E-01 -9.3382998245213E-01
110  1.0900000000000E+00  7.7084637933889E-01 -9.5538615977780E-01
111  1.1000000000000E+00  7.4671017692414E-01 -9.6088534234531E-01
112  1.1100000000000E+00  7.1890836741997E-01 -9.4963163190225E-01
113  1.1200000000000E+00  6.8736445626823E-01 -9.2119069203444E-01
114  1.1300000000000E+00  6.5206846051465E-01 -8.7540159365927E-01
115  1.1400000000000E+00  6.1307859952948E-01 -8.1238398022430E-01
116  1.1500000000000E+00  5.7052176262706E-01 -7.3254038120341E-01
117  1.1600000000000E+00  5.2459273432946E-01 -6.3655358920539E-01
118  1.1700000000000E+00  4.7555218040403E-01 -5.2537910377408E-01
119  1.1800000000000E+00  4.2372342045844E-01 -4.0023273392824E-01
120  1.1900000000000E+00  3.6948803495650E-01 -2.6257353836512E-01
121  1.2000000000000E+00  3.1328037596765E-01 -1.1408236682096E-01
122  1.2100000000000E+00  2.5558107114962E-01  4.3363654135732E-02
123  1.2200000000000E+00  1.9690962909873E-01  2.0772027373990E-01
124  1.2300000000000E+00  1.3781627101251E-01  3.7680842407737E-01
125  1.2400000000000E+00  7.8873128088934E-02  5.4834913963386E-01
126  1.2500000000000E+00  2.0664956208145E-02  7.2000049862296E-01
127  1.2600000000000E+00 -3.6220471218348E-02  8.8939595731985E-01
128  1.2700000000000E+00 -9.1202124863442E-02  1.0541834216473E+00
129  1.2800000000000E+00 -1.4371546468665E-01  1.2120643847831E+00
130  1.2900000000000E+00 -1.9322199744595E-01  1.3608324561814E+00
131  1.3000000000000E+00 -2.3921847785128E-01  1.4984106157105E+00
132  1.3100000000000E+00 -2.8124559038906E-01  1.6228865469232E+00
133  1.3200000000000E+00 -3.1889595743255E-01  1.7325454350536E+00
134  1.3300000000000E+00 -3.5182133057085E-01  1.8258996575621E+00