Nd    ONCVPSP-4.0.1  r_core=   2.00095   1.60366   1.90745   1.60366
60.0000     14.0000      250707    zatom,zion,pspd
8      11   3     4   600     0    pspcod,pspxc,lmax,lloc,mmax,r2well
5.99000000 34.00000000  0.00000000    rchrg fchrg qchrg
2     2     2     2     0    nproj
1     1           extension_switch
0                         7.5917220083462E+00  3.9161370218316E-01
1  0.0000000000000E+00  5.3980930836417E-11 -2.7327490270679E-10
2  1.0000000000000E-02  3.7082767158267E-02 -4.4602424682317E-03
3  2.0000000000000E-02  7.4153491925184E-02 -8.9692385011141E-03
4  3.0000000000000E-02  1.1119997027214E-01 -1.3575042433874E-02
5  4.0000000000000E-02  1.4820967649748E-01 -1.8324317304593E-02
6  5.0000000000000E-02  1.8516960637986E-01 -2.3261657039921E-02
7  6.0000000000000E-02  2.2206612508097E-01 -2.8428929846669E-02
8  7.0000000000000E-02  2.5888482131685E-01 -3.3864649554457E-02
9  8.0000000000000E-02  2.9561036926330E-01 -3.9603381381345E-02
10  9.0000000000000E-02  3.3222639959382E-01 -4.5675188257622E-02
11  1.0000000000000E-01  3.6871538097046E-01 -5.2105123446159E-02
12  1.1000000000000E-01  4.0505851321745E-01 -5.8912774744341E-02
13  1.2000000000000E-01  4.4123563330733E-01 -6.6111865047225E-02
14  1.3000000000000E-01  4.7722513517883E-01 -7.3709913499030E-02
15  1.4000000000000E-01  5.1300390428681E-01 -8.1707960865282E-02
16  1.5000000000000E-01  5.4854726765791E-01 -9.0100362127166E-02
17  1.6000000000000E-01  5.8382896009233E-01 -9.8874648638517E-02
18  1.7000000000000E-01  6.1882110701331E-01 -1.0801146150083E-01
19  1.8000000000000E-01  6.5349422432284E-01 -1.1748455710925E-01
20  1.9000000000000E-01  6.8781723547640E-01 -1.2726088510997E-01
21  2.0000000000000E-01  7.2175750584151E-01 -1.3730073829263E-01
22  2.1000000000000E-01  7.5528089425679E-01 -1.4755797322853E-01
23  2.2000000000000E-01  7.8835182156093E-01 -1.5798029976199E-01
24  2.3000000000000E-01  8.2093335571547E-01 -1.6850963677695E-01
25  2.4000000000000E-01  8.5298731300363E-01 -1.7908253099793E-01
26  2.5000000000000E-01  8.8447437464975E-01 -1.8963063495330E-01
27  2.6000000000000E-01  9.1535421807254E-01 -2.0008123963282E-01
28  2.7000000000000E-01  9.4558566186040E-01 -2.1035785681837E-01
29  2.8000000000000E-01  9.7512682344032E-01 -2.2038084556159E-01
30  2.9000000000000E-01  1.0039352883040E+00 -2.3006807682944E-01
31  3.0000000000000E-01  1.0319682895568E+00 -2.3933562994383E-01
32  3.1000000000000E-01  1.0591828964676E+00 -2.4809851410760E-01
33  3.2000000000000E-01  1.0855362106218E+00 -2.5627140804090E-01
34  3.3000000000000E-01  1.1109855682160E+00 -2.6376941054992E-01
35  3.4000000000000E-01  1.1354887469807E+00 -2.7050879472014E-01
36  3.5000000000000E-01  1.1590041761792E+00 -2.7640775836501E-01
37  3.6000000000000E-01  1.1814911481067E+00 -2.8138716337413E-01
38  3.7000000000000E-01  1.2029100294988E+00 -2.8537125668934E-01
39  3.8000000000000E-01  1.2232224712638E+00 -2.8828836579321E-01
40  3.9000000000000E-01  1.2423916149649E+00 -2.9007156182136E-01
41  4.0000000000000E-01  1.2603822945078E+00 -2.9065928370471E-01
42  4.1000000000000E-01  1.2771612315295E+00 -2.8999591710886E-01
43  4.2000000000000E-01  1.2926972230390E+00 -2.8803232236052E-01
44  4.3000000000000E-01  1.3069613199215E+00 -2.8472630603287E-01
45  4.4000000000000E-01  1.3199269949990E+00 -2.8004303139707E-01
46  4.5000000000000E-01  1.3315702994231E+00 -2.7395536353113E-01
47  4.6000000000000E-01  1.3418700062737E+00 -2.6644414550536E-01
48  4.7000000000000E-01  1.3508077403424E+00 -2.5749840272810E-01
49  4.8000000000000E-01  1.3583680931911E+00 -2.4711547323059E-01
50  4.9000000000000E-01  1.3645387226966E+00 -2.3530106238975E-01
51  5.0000000000000E-01  1.3693104364163E+00 -2.2206922132376E-01
52  5.1000000000000E-01  1.3726772582404E+00 -2.0744224894154E-01
53  5.2000000000000E-01  1.3746364779259E+00 -1.9145051837603E-01
54  5.3000000000000E-01  1.3751886832452E+00 -1.7413222927454E-01
55  5.4000000000000E-01  1.3743377746157E+00 -1.5553308815127E-01
56  5.5000000000000E-01  1.3720909622104E+00 -1.3570591971825E-01
57  5.6000000000000E-01  1.3684587456857E+00 -1.1471021279706E-01
58  5.7000000000000E-01  1.3634548767897E+00 -9.2611605064823E-02
59  5.8000000000000E-01  1.3570963052418E+00 -6.9481311500206E-02
60  5.9000000000000E-01  1.3494031083977E+00 -4.5395501960894E-02
61  6.0000000000000E-01  1.3403984053255E+00 -2.0434633838236E-02
62  6.1000000000000E-01  1.3301082560304E+00  5.3172538075822E-03
63  6.2000000000000E-01  1.3185615466644E+00  3.1773277832821E-02
64  6.3000000000000E-01  1.3057898616502E+00  5.8844473185935E-02
65  6.4000000000000E-01  1.2918273437307E+00  8.6440572281436E-02
66  6.5000000000000E-01  1.2767105430299E+00  1.1447079398898E-01
67  6.6000000000000E-01  1.2604782562723E+00  1.4284463453608E-01
68  6.7000000000000E-01  1.2431713573614E+00  1.7147265257959E-01
69  6.8000000000000E-01  1.2248326205580E+00  2.0026724073098E-01
70  6.9000000000000E-01  1.2055065375318E+00  2.2914337592563E-01
71  7.0000000000000E-01  1.1852391295769E+00  2.5801934120283E-01
72  7.1000000000000E-01  1.1640777562915E+00  2.8681741171258E-01
73  7.2000000000000E-01  1.1420709220209E+00  3.1546449808086E-01
74  7.3000000000000E-01  1.1192680813501E+00  3.4389274064695E-01
75  7.4000000000000E-01  1.0957194449092E+00  3.7204004852936E-01
76  7.5000000000000E-01  1.0714757867255E+00  3.9985057797476E-01
77  7.6000000000000E-01  1.0465882543149E+00  4.2727514499558E-01
78  7.7000000000000E-01  1.0211081826551E+00  4.5427156789701E-01
79  7.8000000000000E-01  9.9508691313198E-01  4.8080493593012E-01
80  7.9000000000000E-01  9.6857561848202E-01  5.0684780097663E-01
81  8.0000000000000E-01  9.4162513469139E-01  5.3238028986603E-01
82  8.1000000000000E-01  9.1428580073508E-01  5.5739013564179E-01
83  8.2000000000000E-01  8.8660730696434E-01  5.8187262682138E-01
84  8.3000000000000E-01  8.5863855286951E-01  6.0583047442992E-01
85  8.4000000000000E-01  8.3042751486279E-01  6.2927359732120E-01
86  8.5000000000000E-01  8.0202112464100E-01  6.5221882702633E-01
87  8.6000000000000E-01  7.7346515860314E-01  6.7468953408358E-01
88  8.7000000000000E-01  7.4480413871262E-01  6.9671517849672E-01
89  8.8000000000000E-01  7.1608124510913E-01  7.1833078763596E-01
90  8.9000000000000E-01  6.8733824069189E-01  7.3957636553481E-01
91  9.0000000000000E-01  6.5861540781463E-01  7.6049623813650E-01
92  9.1000000000000E-01  6.2995149715284E-01  7.8113833960806E-01
93  9.2000000000000E-01  6.0138368872735E-01  8.0155344535950E-01
94  9.3000000000000E-01  5.7294756499425E-01  8.2179435788081E-01
95  9.4000000000000E-01  5.4467709583980E-01  8.4191505193621E-01
96  9.5000000000000E-01  5.1660463525137E-01  8.6196978603398E-01
97  9.6000000000000E-01  4.8876092937004E-01  8.8201218741828E-01
98  9.7000000000000E-01  4.6117513556875E-01  9.0209431810884E-01
99  9.8000000000000E-01  4.3387485213978E-01  9.2226572974389E-01
100  9.9000000000000E-01  4.0688615811885E-01  9.4257251516487E-01
101  1.0000000000000E+00  3.8023366271752E-01  9.6305636481649E-01
102  1.0100000000000E+00  3.5394056378216E-01  9.8375363612992E-01
103  1.0200000000000E+00  3.2802871464540E-01  1.0046944441073E+00
104  1.0300000000000E+00  3.0251869868408E-01  1.0259017813408E+00
105  1.0400000000000E+00  2.7742991084619E-01  1.0473906756779E+00
106  1.0500000000000E+00  2.5278064535730E-01  1.0691673936930E+00
107  1.0600000000000E+00  2.2858818876434E-01  1.0912286980455E+00
108  1.0700000000000E+00  2.0486891742060E-01  1.1135611666996E+00
109  1.0800000000000E+00  1.8163839846060E-01  1.1361405818547E+00
110  1.0900000000000E+00  1.5891149325628E-01  1.1589313962905E+00
111  1.1000000000000E+00  1.3670246228708E-01  1.1818862846659E+00
112  1.1100000000000E+00  1.1502507029581E-01  1.2049457871350E+00
113  1.1200000000000E+00  9.3892690539637E-02  1.2280380524467E+00
114  1.1300000000000E+00  7.3318406882553E-02  1.2510786874854E+00
115  1.1400000000000E+00  5.3315112410528E-02  1.2739707199835E+00
116  1.1500000000000E+00  3.3895603187547E-02  1.2966046808877E+00
117  1.1600000000000E+00  1.5072665707034E-02  1.3188588125894E+00
118  1.1700000000000E+00 -3.1408434666605E-03  1.3405994089301E+00
119  1.1800000000000E+00 -2.0731927428536E-02  1.3616812925504E+00
120  1.1900000000000E+00 -3.7687389647105E-02  1.3819484347725E+00
121  1.2000000000000E+00 -5.3993787316769E-02  1.4012347227643E+00
122  1.2100000000000E+00 -6.9637399034515E-02  1.4193648782252E+00
123  1.2200000000000E+00 -8.4604208505474E-02  1.4361555312510E+00
124  1.2300000000000E+00 -9.8879905983978E-02  1.4514164523422E+00
125  1.2400000000000E+00 -1.1244990913921E-01  1.4649519447281E+00
126  1.2500000000000E+00 -1.2529940499367E-01  1.4765623982411E+00
127  1.2600000000000E+00 -1.3741341451404E-01  1.4860460048850E+00
128  1.2700000000000E+00 -1.4877688133494E-01  1.4932006349842E+00
129  1.2800000000000E+00 -1.5937478595930E-01  1.4978258713200E+00
130  1.2900000000000E+00 -1.6919228660217E-01  1.4997251969673E+00
131  1.3000000000000E+00 -1.7821488762291E-01  1.4987083305971E+00
132  1.3100000000000E+00 -1.8642863621472E-01  1.4945937007544E+00
133  1.3200000000000E+00 -1.9382034768965E-01  1.4872110480666E+00
134  1.3300000000000E+00 -2.0037785930399E-01  1.4764041414312E+00
135  1.3400000000000E+00 -2.0609031210424E-01  1.4620335909221E+00
136  1.3500000000000E+00 -2.1094845973659E-01  1.4439797364394E+00
137  1.3600000000000E+00 -2.1494500254111E-01  1.4221455869353E+00
138  1.3700000000000E+00 -2.1807494454700E-01  1.3964597803926E+00
139  1.3800000000000E+00 -2.2033597017693E-01  1.3668795294789E+00
140  1.3900000000000E+00 -2.2172883656519E-01  1.3333935120212E+00
141  1.4000000000000E+00 -2.2225777637643E-01  1.2960246589986E+00
142  1.4100000000000E+00 -2.2193090487956E-01  1.2548327856665E+00
143  1.4200000000000E+00 -2.2076062377255E-01  1.2099170035998E+00
144  1.4300000000000E+00 -2.1876401285947E-01  1.1614178428474E+00
145  1.4400000000000E+00 -2.1596319914959E-01  1.1095190039997E+00
146  1.4500000000000E+00 -2.1238569126404E-01  1.0544486496914E+00
147  1.4600000000000E+00 -2.0806466518795E-01  9.9648013383961E-01
148  1.4700000000000E+00 -2.0303918540517E-01  9.3593205479810E-01
149  1.4800000000000E+00 -1.9735434324842E-01  8.7316750529458E-01
150  1.4900000000000E+00 -1.9106129192996E-01  8.0859237775250E-01
151  1.5000000000000E+00 -1.8421715513748E-01  7.4265256807208E-01
152  1.5100000000000E+00 -1.7688478329396E-01  6.7582990421033E-01
153  1.5200000000000E+00 -1.6913232857394E-01  6.0863660785383E-01
154  1.5300000000000E+00 -1.6103260652556E-01  5.4160807802823E-01
155  1.5400000000000E+00 -1.5266220866568E-01  4.7529376461246E-01
156  1.5500000000000E+00 -1.4410032667228E-01  4.1024587728920E-01
157  1.5600000000000E+00 -1.3542724477387E-01  3.4700565134368E-01
158  1.5700000000000E+00 -1.2672245264118E-01  2.8608686597855E-01
159  1.5800000000000E+00 -1.1806232507191E-01  2.2795626957681E-01
160  1.5900000000000E+00 -1.0951731112034E-01  1.7301055227925E-01
161  1.6000000000000E+00 -1.0114864761775E-01  1.2155020250403E-01
162  1.6100000000000E+00 -9.3004191954721E-02  7.3746609010276E-02
163  1.6200000000000E+00 -8.5119163771844E-02  2.9658177602392E-02
164  1.6300000000000E+00 -7.7522812020117E-02 -1.0699401355767E-02
165  1.6400000000000E+00 -7.0241000577394E-02 -4.7326887984484E-02
166  1.6500000000000E+00 -6.3295934598189E-02 -8.0243911267591E-02
167  1.6600000000000E+00 -5.6706191081057E-02 -1.0948844919032E-01
168  1.6700000000000E+00 -5.0486723551742E-02 -1.3511669500518E-01
169  1.6800000000000E+00 -4.4648892229220E-02 -1.5720278261419E-01
170  1.6900000000000E+00 -3.9200520779695E-02 -1.7583836175815E-01
171  1.7000000000000E+00 -3.4145978350244E-02 -1.9113203443109E-01
172  1.7100000000000E+00 -2.9486286361196E-02 -2.0320865518036E-01
173  1.7200000000000E+00 -2.5219249361605E-02 -2.1220849884412E-01
174  1.7300000000000E+00 -2.1339609005532E-02 -2.1828630082311E-01
175  1.7400000000000E+00 -1.7839220020838E-02 -2.2161017601294E-01
176  1.7500000000000E+00 -1.4707246832100E-02 -2.2236042378589E-01
177  1.7600000000000E+00 -1.1930379323452E-02 -2.2072822741196E-01
178  1.7700000000000E+00 -9.4930660565897E-03 -2.1691425730113E-01
179  1.7800000000000E+00 -7.3777630701572E-03 -2.1112718862733E-01
180  1.7900000000000E+00 -5.5651962710270E-03 -2.0358214450237E-01
181  1.8000000000000E+00 -4.0346353112801E-03 -1.9449907653922E-01
182  1.8100000000000E+00 -2.7641765834581E-03 -1.8410109649627E-01
183  1.8200000000000E+00 -1.7310332906102E-03 -1.7261276994369E-01
184  1.8300000000000E+00 -9.1182998229083E-04 -1.6025838723751E-01
185  1.8400000000000E+00 -2.8289849980087E-04 -1.4726023053865E-01
186  1.8500000000000E+00  1.7942539514955E-04 -1.3383683712218E-01
187  1.8600000000000E+00  4.9850935744448E-04 -1.2020129026736E-01
188  1.8700000000000E+00  6.9713884422879E-04 -1.0655954971294E-01
189  1.8800000000000E+00  7.9721945882675E-04 -9.3108741336893E-02
190  1.8900000000000E+00  8.1956612942517E-04 -8.0035844600535E-02
191  1.9000000000000E+00  7.8352504825011E-04 -6.7515686353045E-02
192  1.9100000000000E+00  7.0509586431444E-04 -5.5702088385063E-02
193  1.9200000000000E+00  5.9822051296537E-04 -4.4733228695180E-02
194  1.9300000000000E+00  4.7818798173283E-04 -3.4746803238997E-02
195  1.9400000000000E+00  3.5772007322441E-04 -2.5862484922136E-02
196  1.9500000000000E+00  2.4700100998130E-04 -1.8181775140038E-02
197  1.9600000000000E+00  1.5349243648196E-04 -1.1786960813713E-02
198  1.9700000000000E+00  8.1834788787927E-05 -6.7425096501681E-03
199  1.9800000000000E+00  3.3653872562569E-05 -3.0758467944232E-03
200  1.9900000000000E+00  7.9508159484487E-06 -8.4769325858787E-04
201  2.0000000000000E+00  1.9247728171338E-07 -2.5835516490613E-05
202  2.0100000000000E+00 -1.7641185204648E-07  2.5646083555366E-05
203  2.0200000000000E+00  1.1251631295155E-07 -1.3671936077990E-05
204  2.03 -0.  0.
205  2.04 -0. -0.
206  2.05  0.  0.
207  2.06  0.  0.
208  2.07  0.  0.
209  2.08  0.  0.
210  2.09  0.  0.
211  2.10  0.  0.
212  2.11  0.  0.
213  2.12  0.  0.
214  2.13  0.  0.
215  2.14  0.  0.
216  2.15  0.  0.
217  2.16  0.  0.
218  2.17  0.  0.
219  2.18  0.  0.
220  2.19  0.  0.
221  2.20  0.  0.
222  2.21  0.  0.
223  2.22  0.  0.
224  2.23  0.  0.
225  2.24  0.  0.
226  2.25  0.  0.
227  2.26  0.  0.
228  2.27  0.  0.
229  2.28  0.  0.
230  2.29  0.  0.
231  2.30  0.  0.
232  2.31  0.  0.
233  2.32  0.  0.
234  2.33  0.  0.
235  2.34  0.  0.
236  2.35  0.  0.
237  2.36  0.  0.
238  2.37  0.  0.
239  2.38  0.  0.
240  2.39  0.  0.
241  2.40  0.  0.
242  2.41  0.  0.
243  2.42  0.  0.
244  2.43  0.  0.
245  2.44  0.  0.
246  2.45  0.  0.
247  2.46  0.  0.
248  2.47  0.  0.
249  2.48  0.  0.
250  2.49  0.  0.
251  2.50  0.  0.
252  2.51  0.  0.
253  2.52  0.  0.
254  2.53  0.  0.
255  2.54  0.  0.
256  2.55  0.  0.
257  2.56  0.  0.
258  2.57  0.  0.
259  2.58  0.  0.
260  2.59  0.  0.
261  2.60  0.  0.
262  2.61  0.  0.
263  2.62  0.  0.
264  2.63  0.  0.
265  2.64  0.  0.
266  2.65  0.  0.
267  2.66  0.  0.
268  2.67  0.  0.
269  2.68  0.  0.
270  2.69  0.  0.
271  2.70  0.  0.
272  2.71  0.  0.
273  2.72  0.  0.
274  2.73  0.  0.
275  2.74  0.  0.
276  2.75  0.  0.
277  2.76  0.  0.
278  2.77  0.  0.
279  2.78  0.  0.
280  2.79  0.  0.
281  2.80  0.  0.
282  2.81  0.  0.
283  2.82  0.  0.
284  2.83  0.  0.
285  2.84  0.  0.
286  2.85  0.  0.
287  2.86  0.  0.
288  2.87  0.  0.
289  2.88  0.  0.
290  2.89  0.  0.
291  2.90  0.  0.
292  2.91  0.  0.
293  2.92  0.  0.
294  2.93  0.  0.
295  2.94  0.  0.
296  2.95  0.  0.
297  2.96  0.  0.
298  2.97  0.  0.
299  2.98  0.  0.
300  2.99  0.  0.
301  3.00  0.  0.
302  3.01  0.  0.
303  3.02  0.  0.
304  3.03  0.  0.
305  3.04  0.  0.
306  3.05  0.  0.
307  3.06  0.  0.
308  3.07  0.  0.
309  3.08  0.  0.
310  3.09  0.  0.
311  3.10  0.  0.
312  3.11  0.  0.
313  3.12  0.  0.
314  3.13  0.  0.
315  3.14  0.  0.
316  3.15  0.  0.
317  3.16  0.  0.
318  3.17  0.  0.
319  3.18  0.  0.
320  3.19  0.  0.
321  3.20  0.  0.
322  3.21  0.  0.
323  3.22  0.  0.
324  3.23  0.  0.
325  3.24  0.  0.
326  3.25  0.  0.
327  3.26  0.  0.
328  3.27  0.  0.
329  3.28  0.  0.
330  3.29  0.  0.
331  3.30  0.  0.
332  3.31  0.  0.
333  3.32  0.  0.
334  3.33  0.  0.
335  3.34  0.  0.
336  3.35  0.  0.
337  3.36  0.  0.
338  3.37  0.  0.
339  3.38  0.  0.
340  3.39  0.  0.
341  3.40  0.  0.
342  3.41  0.  0.
343  3.42  0.  0.
344  3.43  0.  0.
345  3.44  0.  0.
346  3.45  0.  0.
347  3.46  0.  0.
348  3.47  0.  0.
349  3.48  0.  0.
350  3.49  0.  0.
351  3.50  0.  0.
352  3.51  0.  0.
353  3.52  0.  0.
354  3.53  0.  0.
355  3.54  0.  0.
356  3.55  0.  0.
357  3.56  0.  0.
358  3.57  0.  0.
359  3.58  0.  0.
360  3.59  0.  0.
361  3.60  0.  0.
362  3.61  0.  0.
363  3.62  0.  0.
364  3.63  0.  0.
365  3.64  0.  0.
366  3.65  0.  0.
367  3.66  0.  0.
368  3.67  0.  0.
369  3.68  0.  0.
370  3.69  0.  0.
371  3.70  0.  0.
372  3.71  0.  0.
373  3.72  0.  0.
374  3.73  0.  0.
375  3.74  0.  0.
376  3.75  0.  0.
377  3.76  0.  0.
378  3.77  0.  0.
379  3.78  0.  0.
380  3.79  0.  0.
381  3.80  0.  0.
382  3.81  0.  0.
383  3.82  0.  0.
384  3.83  0.  0.
385  3.84  0.  0.
386  3.85  0.  0.
387  3.86  0.  0.
388  3.87  0.  0.
389  3.88  0.  0.
390  3.89  0.  0.
391  3.90  0.  0.
392  3.91  0.  0.
393  3.92  0.  0.
394  3.93  0.  0.
395  3.94  0.  0.
396  3.95  0.  0.
397  3.96  0.  0.
398  3.97  0.  0.
399  3.98  0.  0.
400  3.99  0.  0.
401  4.00  0.  0.
402  4.01  0.  0.
403  4.02  0.  0.
404  4.03  0.  0.
405  4.04  0.  0.
406  4.05  0.  0.
407  4.06  0.  0.
408  4.07  0.  0.
409  4.08  0.  0.
410  4.09  0.  0.
411  4.10  0.  0.
412  4.11  0.  0.
413  4.12  0.  0.
414  4.13  0.  0.
415  4.14  0.  0.
416  4.15  0.  0.
417  4.16  0.  0.
418  4.17  0.  0.
419  4.18  0.  0.
420  4.19  0.  0.
421  4.20  0.  0.
422  4.21  0.  0.
423  4.22  0.  0.
424  4.23  0.  0.
425  4.24  0.  0.
426  4.25  0.  0.
427  4.26  0.  0.
428  4.27  0.  0.
429  4.28  0.  0.
430  4.29  0.  0.
431  4.30  0.  0.
432  4.31  0.  0.
433  4.32  0.  0.
434  4.33  0.  0.
435  4.34  0.  0.
436  4.35  0.  0.
437  4.36  0.  0.
438  4.37  0.  0.
439  4.38  0.  0.
440  4.39  0.  0.
441  4.40  0.  0.
442  4.41  0.  0.
443  4.42  0.  0.
444  4.43  0.  0.
445  4.44  0.  0.
446  4.45  0.  0.
447  4.46  0.  0.
448  4.47  0.  0.
449  4.48  0.  0.
450  4.49  0.  0.
451  4.50  0.  0.
452  4.51  0.  0.
453  4.52  0.  0.
454  4.53  0.  0.
455  4.54  0.  0.
456  4.55  0.  0.
457  4.56  0.  0.
458  4.57  0.  0.
459  4.58  0.  0.
460  4.59  0.  0.
461  4.60  0.  0.
462  4.61  0.  0.
463  4.62  0.  0.
464  4.63  0.  0.
465  4.64  0.  0.
466  4.65  0.  0.
467  4.66  0.  0.
468  4.67  0.  0.
469  4.68  0.  0.
470  4.69  0.  0.
471  4.70  0.  0.
472  4.71  0.  0.
473  4.72  0.  0.
474  4.73  0.  0.
475  4.74  0.  0.
476  4.75  0.  0.
477  4.76  0.  0.
478  4.77  0.  0.
479  4.78  0.  0.
480  4.79  0.  0.
481  4.80  0.  0.
482  4.81  0.  0.
483  4.82  0.  0.
484  4.83  0.  0.
485  4.84  0.  0.
486  4.85  0.  0.
487  4.86  0.  0.
488  4.87  0.  0.
489  4.88  0.  0.
490  4.89  0.  0.
491  4.90  0.  0.
492  4.91  0.  0.
493  4.92  0.  0.
494  4.93  0.  0.
495  4.94  0.  0.
496  4.95  0.  0.
497  4.96  0.  0.
498  4.97  0.  0.
499  4.98  0.  0.
500  4.99  0.  0.
501  5.00  0.  0.
502  5.01  0.  0.
503  5.02  0.  0.
504  5.03  0.  0.
505  5.04  0.  0.
506  5.05  0.  0.
507  5.06  0.  0.
508  5.07  0.  0.
509  5.08  0.  0.
510  5.09  0.  0.
511  5.10  0.  0.
512  5.11  0.  0.
513  5.12  0.  0.
514  5.13  0.  0.
515  5.14  0.  0.
516  5.15  0.  0.
517  5.16  0.  0.
518  5.17  0.  0.
519  5.18  0.  0.
520  5.19  0.  0.
521  5.20  0.  0.
522  5.21  0.  0.
523  5.22  0.  0.
524  5.23  0.  0.
525  5.24  0.  0.
526  5.25  0.  0.
527  5.26  0.  0.
528  5.27  0.  0.
529  5.28  0.  0.
530  5.29  0.  0.
531  5.30  0.  0.
532  5.31  0.  0.
533  5.32  0.  0.
534  5.33  0.  0.
535  5.34  0.  0.
536  5.35  0.  0.
537  5.36  0.  0.
538  5.37  0.  0.
539  5.38  0.  0.
540  5.39  0.  0.
541  5.40  0.  0.
542  5.41  0.  0.
543  5.42  0.  0.
544  5.43  0.  0.
545  5.44  0.  0.
546  5.45  0.  0.
547  5.46  0.  0.
548  5.47  0.  0.
549  5.48  0.  0.
550  5.49  0.  0.
551  5.50  0.  0.
552  5.51  0.  0.
553  5.52  0.  0.
554  5.53  0.  0.
555  5.54  0.  0.
556  5.55  0.  0.
557  5.56  0.  0.
558  5.57  0.  0.
559  5.58  0.  0.
560  5.59  0.  0.
561  5.60  0.  0.
562  5.61  0.  0.
563  5.62  0.  0.
564  5.63  0.  0.
565  5.64  0.  0.
566  5.65  0.  0.
567  5.66  0.  0.
568  5.67  0.  0.
569  5.68  0.  0.
570  5.69  0.  0.
571  5.70  0.  0.
572  5.71  0.  0.
573  5.72  0.  0.
574  5.73  0.  0.
575  5.74  0.  0.
576  5.75  0.  0.
577  5.76  0.  0.
578  5.77  0.  0.
579  5.78  0.  0.
580  5.79  0.  0.
581  5.80  0.  0.
582  5.81  0.  0.
583  5.82  0.  0.
584  5.83  0.  0.
585  5.84  0.  0.
586  5.85  0.  0.
587  5.86  0.  0.
588  5.87  0.  0.
589  5.88  0.  0.
590  5.89  0.  0.
591  5.90  0.  0.
592  5.91  0.  0.
593  5.92  0.  0.
594  5.93  0.  0.
595  5.94  0.  0.
596  5.95  0.  0.
597  5.96  0.  0.
598  5.97  0.  0.
599  5.98  0.  0.
600  5.99  0.  0.
1                         4.7413118491565E+00  1.6262916109795E+00
1  0.0000000000000E+00  4.5348649488353E-09 -1.2824090803165E-08
2  1.0000000000000E-02  4.9114930650838E-04  1.0756968618308E-03
3  2.0000000000000E-02  1.9598001306390E-03  4.3108331963970E-03
4  3.0000000000000E-02  4.3916826733809E-03  9.7292127879502E-03
5  4.0000000000000E-02  7.7634161965067E-03  1.7369404696089E-02
6  5.0000000000000E-02  1.2043103027602E-02  2.7283113931168E-02
7  6.0000000000000E-02  1.7191141594026E-02  3.9532952934538E-02
8  7.0000000000000E-02  2.3161240368731E-02  5.4189665106693E-02
9  8.0000000000000E-02  2.9901610075992E-02  7.1328864450524E-02
10  9.0000000000000E-02  3.7356307434103E-02  9.1027366907112E-02
11  1.0000000000000E-01  4.5466700188838E-02  1.1335919892034E-01
12  1.1000000000000E-01  5.4173020289795E-02  1.3839137696494E-01
13  1.2000000000000E-01  6.3415969842619E-02  1.6617955803754E-01
14  1.3000000000000E-01  7.3138342981360E-02  1.9676366530673E-01
15  1.4000000000000E-01  8.3286626080459E-02  2.3016359515048E-01
16  1.5000000000000E-01  9.3812538783143E-02  2.6637511162648E-01
17  1.6000000000000E-01  1.0467447916540E-01  3.0536603201485E-01
18  1.7000000000000E-01  1.1583883796922E-01  3.4707280247858E-01
19  1.8000000000000E-01  1.2728114919757E-01  3.9139755618592E-01
20  1.9000000000000E-01  1.3898704742319E-01  4.3820573755157E-01
21  2.0000000000000E-01  1.5095300586681E-01  4.8732436574250E-01
22  2.1000000000000E-01  1.6318683357767E-01  5.3854099845798E-01
23  2.2000000000000E-01  1.7570791481771E-01  5.9160344346453E-01
24  2.3000000000000E-01  1.8854717891915E-01  6.4622025070550E-01
25  2.4000000000000E-01  2.0174679435179E-01  7.0206200229736E-01
26  2.5000000000000E-01  2.1535958639480E-01  7.5876340167368E-01
27  2.6000000000000E-01  2.2944818354579E-01  8.1592614685915E-01
28  2.7000000000000E-01  2.4408390350409E-01  8.7312255667353E-01
29  2.8000000000000E-01  2.5934539512041E-01  9.2989990290094E-01
30  2.9000000000000E-01  2.7531705800036E-01  9.8578538643134E-01
31  3.0000000000000E-01  2.9208726637605E-01  1.0402916813939E+00
32  3.1000000000000E-01  3.0974642831736E-01  1.0929229586414E+00
33  3.2000000000000E-01  3.2838491524882E-01  1.1431812888767E+00
34  3.3000000000000E-01  3.4809089998787E-01  1.1905733164655E+00
35  3.4000000000000E-01  3.6894814405315E-01  1.2346170877634E+00
36  3.5000000000000E-01  3.9103377675207E-01  1.2748489127480E+00
37  3.6000000000000E-01  4.1441610950050E-01  1.3108301360238E+00
38  3.7000000000000E-01  4.3915252892890E-01  1.3421536929253E+00
39  3.8000000000000E-01  4.6528751157579E-01  1.3684503285156E+00
40  3.9000000000000E-01  4.9285080136841E-01  1.3893943617507E+00
41  4.0000000000000E-01  5.2185578866251E-01  1.4047088838858E+00
42  4.1000000000000E-01  5.5229812639821E-01  1.4141702892360E+00
43  4.2000000000000E-01  5.8415461498003E-01  1.4176120475074E+00
44  4.3000000000000E-01  6.1738238287549E-01  1.4149276399056E+00
45  4.4000000000000E-01  6.5191838473145E-01  1.4060725958549E+00
46  4.5000000000000E-01  6.8767923312359E-01  1.3910655831743E+00
47  4.6000000000000E-01  7.2456137398854E-01  1.3699885216447E+00
48  4.7000000000000E-01  7.6244160945245E-01  1.3429857077553E+00
49  4.8000000000000E-01  8.0117796528402E-01  1.3102619566896E+00
50  4.9000000000000E-01  8.4061089368829E-01  1.2720797859628E+00
51  5.0000000000000E-01  8.8056479574459E-01  1.2287556831889E+00
52  5.1000000000000E-01  9.2084984160316E-01  1.1806555178920E+00
53  5.2000000000000E-01  9.6126406071115E-01  1.1281891737377E+00
54  5.3000000000000E-01  1.0015956689570E+00  1.0718044927159E+00
55  5.4000000000000E-01  1.0416255948094E+00  1.0119806363555E+00
56  5.5000000000000E-01  1.0811301623846E+00  9.4922098071589E-01
57  5.6000000000000E-01  1.1198838859846E+00  8.8404567142744E-01
58  5.7000000000000E-01  1.1576623280905E+00  8.1698397225864E-01
59  5.8000000000000E-01  1.1942449711181E+00  7.4856654538349E-01
60  5.9000000000000E-01  1.2294180524940E+00  6.7931780361795E-01
61  6.0000000000000E-01  1.2629773128127E+00  6.0974847430752E-01
62  6.1000000000000E-01  1.2947306079928E+00  5.4034851127250E-01
63  6.2000000000000E-01  1.3245003384501E+00  4.7158048528771E-01
64  6.3000000000000E-01  1.3521256513228E+00  4.0387357507995E-01
65  6.4000000000000E-01  1.3774643756552E+00  3.3761826990794E-01
66  6.5000000000000E-01  1.4003946551294E+00  2.7316188163480E-01
67  6.6000000000000E-01  1.4208162483182E+00  2.1080494904477E-01
68  6.7000000000000E-01  1.4386514724472E+00  1.5079860026842E-01
69  6.8000000000000E-01  1.4538457731746E+00  9.3342920874960E-02
70  6.9000000000000E-01  1.4663679098039E+00  3.8586355806809E-02
71  7.0000000000000E-01  1.4762097525199E+00 -1.3373846762908E-02
72  7.1000000000000E-01  1.4833856955316E+00 -6.2490161993748E-02
73  7.2000000000000E-01  1.4879316972885E+00 -1.0876231806375E-01
74  7.3000000000000E-01  1.4899039660680E+00 -1.5223388157850E-01
75  7.4000000000000E-01  1.4893773160640E+00 -1.9298797034919E-01
76  7.5000000000000E-01  1.4864432255203E+00 -2.3114218300037E-01
77  7.6000000000000E-01  1.4812076343066E+00 -2.6684285109220E-01
78  7.7000000000000E-01  1.4737885235183E+00 -3.0025873374455E-01
79  7.8000000000000E-01  1.4643133240884E+00 -3.3157428683126E-01
80  7.9000000000000E-01  1.4529162049329E+00 -3.6098264841659E-01
81  8.0000000000000E-01  1.4397352937434E+00 -3.8867848901673E-01
82  8.1000000000000E-01  1.4249098851209E+00 -4.1485087932558E-01
83  8.2000000000000E-01  1.4085776912832E+00 -4.3967632913643E-01
84  8.3000000000000E-01  1.3908721900545E+00 -4.6331214926518E-01
85  8.4000000000000E-01  1.3719201232472E+00 -4.8589028334230E-01
86  8.5000000000000E-01  1.3518391959151E+00 -5.0751174845256E-01
87  8.6000000000000E-01  1.3307360233120E+00 -5.2824181288281E-01
88  8.7000000000000E-01  1.3087043678087E+00 -5.4810602586871E-01
89  8.8000000000000E-01  1.2858237025766E+00 -5.6708719843754E-01
90  8.9000000000000E-01  1.2621581326312E+00 -5.8512341650842E-01
91  9.0000000000000E-01  1.2377556969681E+00 -6.0210714765430E-01
92  9.1000000000000E-01  1.2126480681292E+00 -6.1788548171610E-01
93  9.2000000000000E-01  1.1868506577595E+00 -6.3226152318069E-01
94  9.3000000000000E-01  1.1603631286885E+00 -6.4499693031018E-01
95  9.4000000000000E-01  1.1331703059613E+00 -6.5581557287483E-01
96  9.5000000000000E-01  1.1052434711942E+00 -6.6440825744074E-01
97  9.6000000000000E-01  1.0765420168046E+00 -6.7043844693865E-01
98  9.7000000000000E-01  1.0470154292141E+00 -6.7354888012507E-01
99  9.8000000000000E-01  1.0166055631918E+00 -6.7336897696412E-01
100  9.9000000000000E-01  9.8524916323323E-01 -6.6952289829548E-01
101  1.0000000000000E+00  9.5288058238824E-01 -6.6163811277664E-01
102  1.0100000000000E+00  9.1943464436097E-01 -6.4935431130194E-01
103  1.0200000000000E+00  8.8484959111586E-01 -6.3233249920007E-01
104  1.0300000000000E+00  8.4907005570683E-01 -6.1026408969767E-01
105  1.0400000000000E+00  8.1204999865800E-01 -5.8287981857718E-01
106  1.0500000000000E+00  7.7375554600905E-01 -5.4995829976655E-01
107  1.0600000000000E+00  7.3416766810048E-01 -5.1133404479034E-01
108  1.0700000000000E+00  6.9328464031831E-01 -4.6690477559857E-01
109  1.0800000000000E+00  6.5112423030172E-01 -4.1663787014256E-01
110  1.0900000000000E+00  6.0772556049644E-01 -3.6057579306089E-01
111  1.1000000000000E+00  5.6315060034231E-01 -2.9884037977295E-01
112  1.1100000000000E+00  5.1748524869770E-01 -2.3163586081139E-01
113  1.1200000000000E+00  4.7083997426663E-01 -1.5925053419086E-01
114  1.1300000000000E+00  4.2334998959603E-01 -8.2057016399241E-02
115  1.1400000000000E+00  3.7517494262419E-01 -5.1102714025054E-04
116  1.1500000000000E+00  3.2649811849103E-01  8.4851311604368E-02
117  1.1600000000000E+00  2.7752515337175E-01  1.7341765526122E-01
118  1.1700000000000E+00  2.2848227112236E-01  2.6450506188268E-01
119  1.1800000000000E+00  1.7961406254124E-01  3.5736700341845E-01
120  1.1900000000000E+00  1.3118083572104E-01  4.5120167830109E-01
121  1.2000000000000E+00  8.3455574264609E-02  5.4516151639839E-01
122  1.2100000000000E+00  3.6720547820611E-02  6.3836374494585E-01
123  1.2200000000000E+00 -8.7363736523425E-03  7.2990186371758E-01
124  1.2300000000000E+00 -5.2625644366372E-02  8.1885785972292E-01
125  1.2400000000000E+00 -9.4660143306345E-02  9.0431497666623E-01
126  1.2500000000000E+00 -1.3455938426710E-01  9.8537084230767E-01
127  1.2600000000000E+00 -1.7205376576110E-01  1.0611507481456E+00
128  1.2700000000000E+00 -2.0688878955458E-01  1.1308208705566E+00
129  1.2800000000000E+00 -2.3882917615876E-01  1.1936012207956E+00
130  1.2900000000000E+00 -2.6766280644415E-01  1.2487781131610E+00
131  1.3000000000000E+00 -2.9320442060979E-01  1.2957159460209E+00
132  1.3100000000000E+00 -3.1529900905068E-01  1.3338680993416E+00
133  1.3200000000000E+00 -3.3382483411418E-01  1.3627867645499E+00
134  1.3300000000000E+00 -3.4869602725114E-01  1.3821315377900E+00