Nd    ONCVPSP-4.0.1  r_core=   2.00095   1.60366   1.90745   1.60366
60.0000     14.0000      250626    zatom,zion,pspd
8      11   3     4   600     0    pspcod,pspxc,lmax,lloc,mmax,r2well
5.99000000 29.30000000  0.00000000    rchrg fchrg qchrg
2     2     2     2     0    nproj
1     1           extension_switch
0                         7.2322117416875E+00  4.4592526952220E-01
1  0.0000000000000E+00  6.4232674734654E-11 -2.9379513405425E-10
2  1.0000000000000E-02  3.6088408118100E-02 -3.9534226445267E-03
3  2.0000000000000E-02  7.2167365834301E-02 -7.9524244104603E-03
4  3.0000000000000E-02  1.0822724578038E-01 -1.2041904172108E-02
5  4.0000000000000E-02  1.4425806845606E-01 -1.6265407640728E-02
6  5.0000000000000E-02  1.8024933064812E-01 -2.0664469035621E-02
7  6.0000000000000E-02  2.1618983918568E-01 -2.5277974448287E-02
8  7.0000000000000E-02  2.5206755173465E-01 -3.0141553782859E-02
9  8.0000000000000E-02  2.8786942626973E-01 -3.5287007862248E-02
10  9.0000000000000E-02  3.2358128078349E-01 -4.0741776927857E-02
11  1.0000000000000E-01  3.5918766469853E-01 -4.6528456334747E-02
12  1.1000000000000E-01  3.9467174334207E-01 -5.2664364758081E-02
13  1.2000000000000E-01  4.3001519672315E-01 -5.9161169685465E-02
14  1.3000000000000E-01  4.6519813372224E-01 -6.6024574378559E-02
15  1.4000000000000E-01  5.0019902266277E-01 -7.3254069852351E-02
16  1.5000000000000E-01  5.3499463908440E-01 -8.0842754747852E-02
17  1.6000000000000E-01  5.6956003138173E-01 -8.8777225270373E-02
18  1.7000000000000E-01  6.0386850480896E-01 -9.7037536638404E-02
19  1.8000000000000E-01  6.3789162418424E-01 -1.0559723674413E-01
20  1.9000000000000E-01  6.7159923545719E-01 -1.1442347197440E-01
21  2.0000000000000E-01  7.0495950613155E-01 -1.2347716438627E-01
22  2.1000000000000E-01  7.3793898436387E-01 -1.3271325868423E-01
23  2.2000000000000E-01  7.7050267638930E-01 -1.4208103671189E-01
24  2.3000000000000E-01  8.0261414175986E-01 -1.5152449645888E-01
25  2.4000000000000E-01  8.3423560571870E-01 -1.6098279190010E-01
26  2.5000000000000E-01  8.6532808787944E-01 -1.7039072933663E-01
27  2.6000000000000E-01  8.9585154623208E-01 -1.7967931530234E-01
28  2.7000000000000E-01  9.2576503535919E-01 -1.8877635054420E-01
29  2.8000000000000E-01  9.5502687761828E-01 -1.9760706408208E-01
30  2.9000000000000E-01  9.8359484593005E-01 -2.0609478091324E-01
31  3.0000000000000E-01  1.0114263567090E+00 -2.1416161654883E-01
32  3.1000000000000E-01  1.0384786713823E+00 -2.2172919126309E-01
33  3.2000000000000E-01  1.0647091048686E+00 -2.2871935669981E-01
34  3.3000000000000E-01  1.0900752393252E+00 -2.3505492732093E-01
35  3.4000000000000E-01  1.1145351414304E+00 -2.4066040909880E-01
36  3.5000000000000E-01  1.1380475814366E+00 -2.4546271784917E-01
37  3.6000000000000E-01  1.1605722522167E+00 -2.4939187967572E-01
38  3.7000000000000E-01  1.1820699865305E+00 -2.5238170615005E-01
39  3.8000000000000E-01  1.2025029707586E+00 -2.5437043707985E-01
40  3.9000000000000E-01  1.2218349533830E+00 -2.5530134402398E-01
41  4.0000000000000E-01  1.2400314465488E+00 -2.5512328808979E-01
42  4.1000000000000E-01  1.2570599191048E+00 -2.5379122599512E-01
43  4.2000000000000E-01  1.2728899796020E+00 -2.5126665888821E-01
44  4.3000000000000E-01  1.2874935478227E+00 -2.4751801899035E-01
45  4.4000000000000E-01  1.3008450135196E+00 -2.4252098975066E-01
46  4.5000000000000E-01  1.3129213811613E+00 -2.3625875587694E-01
47  4.6000000000000E-01  1.3237023996096E+00 -2.2872218031979E-01
48  4.7000000000000E-01  1.3331706757905E+00 -2.1990990603793E-01
49  4.8000000000000E-01  1.3413117715664E+00 -2.0982838114658E-01
50  4.9000000000000E-01  1.3481142831667E+00 -1.9849180684660E-01
51  5.0000000000000E-01  1.3535699026900E+00 -1.8592200833546E-01
52  5.1000000000000E-01  1.3576734613512E+00 -1.7214822970993E-01
53  5.2000000000000E-01  1.3604229543052E+00 -1.5720685466985E-01
54  5.3000000000000E-01  1.3618195470398E+00 -1.4114105562006E-01
55  5.4000000000000E-01  1.3618675634909E+00 -1.2400037453067E-01
56  5.5000000000000E-01  1.3605744561853E+00 -1.0584023964900E-01
57  5.6000000000000E-01  1.3579507588719E+00 -8.6721422851223E-02
58  5.7000000000000E-01  1.3540100222422E+00 -6.6709443068676E-02
59  5.8000000000000E-01  1.3487687334826E+00 -4.5873921820576E-02
60  5.9000000000000E-01  1.3422462205280E+00 -2.4287897418690E-02
61  6.0000000000000E-01  1.3344645420045E+00 -2.0271048806547E-03
62  6.1000000000000E-01  1.3254483639571E+00  2.0830771012807E-02
63  6.2000000000000E-01  1.3152248245568E+00  4.4206861757055E-02
64  6.3000000000000E-01  1.3038233880582E+00  6.8021892254745E-02
65  6.4000000000000E-01  1.2912756893557E+00  9.2196960870610E-02
66  6.5000000000000E-01  1.2776153705359E+00  1.1665431416289E-01
67  6.6000000000000E-01  1.2628779108686E+00  1.4131810804930E-01
68  6.7000000000000E-01  1.2471004517025E+00  1.6611514725615E-01
69  6.8000000000000E-01  1.2303216177462E+00  1.9097559507528E-01
70  6.9000000000000E-01  1.2125813362095E+00  2.1583364571047E-01
71  7.0000000000000E-01  1.1939206552661E+00  2.4062815183456E-01
72  7.1000000000000E-01  1.1743815632648E+00  2.6530320039356E-01
73  7.2000000000000E-01  1.1540068100750E+00  2.8980863018288E-01
74  7.3000000000000E-01  1.1328397318935E+00  3.1410048527630E-01
75  7.4000000000000E-01  1.1109240807728E+00  3.3814139900746E-01
76  7.5000000000000E-01  1.0883038600512E+00  3.6190090387657E-01
77  7.6000000000000E-01  1.0650231667774E+00  3.8535566347770E-01
78  7.7000000000000E-01  1.0411260421244E+00  4.0848962330542E-01
79  7.8000000000000E-01  1.0166563306837E+00  4.3129407809516E-01
80  7.9000000000000E-01  9.9165754942143E-01  4.5376765417328E-01
81  8.0000000000000E-01  9.6617276696291E-01  4.7591620612858E-01
82  8.1000000000000E-01  9.4024449375559E-01  4.9775262796241E-01
83  8.2000000000000E-01  9.1391458354008E-01  5.1929657971598E-01
84  8.3000000000000E-01  8.8722414644097E-01  5.4057413140715E-01
85  8.4000000000000E-01  8.6021347387001E-01  5.6161732692256E-01
86  8.5000000000000E-01  8.3292197531873E-01  5.8246367129895E-01
87  8.6000000000000E-01  8.0538812700517E-01  6.0315554557995E-01
88  8.7000000000000E-01  7.7764943223196E-01  6.2373955414716E-01
89  8.8000000000000E-01  7.4974239321129E-01  6.4426581008653E-01
90  8.9000000000000E-01  7.2170249401705E-01  6.6478716476066E-01
91  9.0000000000000E-01  6.9356419423702E-01  6.8535838830703E-01
92  9.1000000000000E-01  6.6536093281839E-01  7.0603530826800E-01
93  9.2000000000000E-01  6.3712514152897E-01  7.2687391397669E-01
94  9.3000000000000E-01  6.0888826739431E-01  7.4792943467170E-01
95  9.4000000000000E-01  5.8068080341793E-01  7.6925539959058E-01
96  9.5000000000000E-01  5.5253232684798E-01  7.9090268849705E-01
97  9.6000000000000E-01  5.2447154421811E-01  8.1291858123020E-01
98  9.7000000000000E-01  4.9652634236391E-01  8.3534581492620E-01
99  9.8000000000000E-01  4.6872384459730E-01  8.5822165755760E-01
100  9.9000000000000E-01  4.4109047120990E-01  8.8157700636373E-01
101  1.0000000000000E+00  4.1365200347148E-01  9.0543551961298E-01
102  1.0100000000000E+00  3.8643365029039E-01  9.2981278994806E-01
103  1.0200000000000E+00  3.5946011670816E-01  9.5471556732301E-01
104  1.0300000000000E+00  3.3275567340975E-01  9.8014103925291E-01
105  1.0400000000000E+00  3.0634422644217E-01  1.0060761757692E+00
106  1.0500000000000E+00  2.8024938634715E-01  1.0324971461099E+00
107  1.0600000000000E+00  2.5449453592678E-01  1.0593688137863E+00
108  1.0700000000000E+00  2.2910289587286E-01  1.0866443162532E+00
109  1.0800000000000E+00  2.0409758750131E-01  1.1142647349874E+00
110  1.0900000000000E+00  1.7950169184001E-01  1.1421588613394E+00
111  1.1000000000000E+00  1.5533830432216E-01  1.1702430630870E+00
112  1.1100000000000E+00  1.3163058433648E-01  1.1984212561769E+00
113  1.1200000000000E+00  1.0840179887981E-01  1.2265849857072E+00
114  1.1300000000000E+00  8.5675359546605E-02  1.2546136197749E+00
115  1.1400000000000E+00  6.3474852074210E-02  1.2823746593890E+00
116  1.1500000000000E+00  4.1824057641094E-02  1.3097241672418E+00
117  1.1600000000000E+00  2.0746965090304E-02  1.3365073177219E+00
118  1.1700000000000E+00  2.6777322107118E-04  1.3625590701541E+00
119  1.1800000000000E+00 -1.9589117740048E-02  1.3877049668462E+00
120  1.1900000000000E+00 -3.8799126409105E-02  1.4117620571173E+00
121  1.2000000000000E+00 -5.7337523207941E-02  1.4345399480565E+00
122  1.2100000000000E+00 -7.5179477000486E-02  1.4558419823114E+00
123  1.2200000000000E+00 -9.2300116403981E-02  1.4754665427220E+00
124  1.2300000000000E+00 -1.0867460678977E-01  1.4932084830732E+00
125  1.2400000000000E+00 -1.2427824398850E-01  1.5088606836388E+00
126  1.2500000000000E+00 -1.3908656569878E-01  1.5222157294965E+00
127  1.2600000000000E+00 -1.5307548156124E-01  1.5330677087941E+00
128  1.2700000000000E+00 -1.6622142279912E-01  1.5412141272306E+00
129  1.2800000000000E+00 -1.7850151223394E-01  1.5464579339334E+00
130  1.2900000000000E+00 -1.8989375535823E-01  1.5486096526615E+00
131  1.3000000000000E+00 -2.0037725297987E-01  1.5474896108144E+00
132  1.3100000000000E+00 -2.0993243573745E-01  1.5429302570296E+00
133  1.3200000000000E+00 -2.1854132051844E-01  1.5347785561964E+00
134  1.3300000000000E+00 -2.2618778848621E-01  1.5228984484739E+00
135  1.3400000000000E+00 -2.3285788402793E-01  1.5071733563113E+00
136  1.3500000000000E+00 -2.3854013347009E-01  1.4875087205284E+00
137  1.3600000000000E+00 -2.4322588186089E-01  1.4638345431632E+00
138  1.3700000000000E+00 -2.4690964548848E-01  1.4361079110248E+00
139  1.3800000000000E+00 -2.4958947707105E-01  1.4043154696092E+00
140  1.3900000000000E+00 -2.5126733972588E-01  1.3684758122680E+00
141  1.4000000000000E+00 -2.5194948487983E-01  1.3286417441744E+00
142  1.4100000000000E+00 -2.5164682822386E-01  1.2849023746996E+00
143  1.4200000000000E+00 -2.5037531662430E-01  1.2373849852241E+00
144  1.4300000000000E+00 -2.4815627757618E-01  1.1862566121213E+00
145  1.4400000000000E+00 -2.4501674131615E-01  1.1317252766483E+00
146  1.4500000000000E+00 -2.4098972408671E-01  1.0740407846701E+00
147  1.4600000000000E+00 -2.3611445925221E-01  1.0134950094860E+00
148  1.4700000000000E+00 -2.3043656101580E-01  9.5042156054867E-01
149  1.4800000000000E+00 -2.2400810332785E-01  8.8519472931576E-01
150  1.4900000000000E+00 -2.1688759424843E-01  8.1822759105097E-01
151  1.5000000000000E+00 -2.0913982347904E-01  7.4996912782849E-01
152  1.5100000000000E+00 -2.0083555802106E-01  6.8090022333427E-01
153  1.5200000000000E+00 -1.9205105793173E-01  6.1152836420518E-01
154  1.5300000000000E+00 -1.8286738091942E-01  5.4238086552160E-01
155  1.5400000000000E+00 -1.7336944104379E-01  4.7399641964399E-01
156  1.5500000000000E+00 -1.6364478304101E-01  4.0691474774234E-01
157  1.5600000000000E+00 -1.5378202975995E-01  3.4166411199428E-01
158  1.5700000000000E+00 -1.4386895588100E-01  2.7874642357318E-01
159  1.5800000000000E+00 -1.3399013507111E-01  2.1861964500551E-01
160  1.5900000000000E+00 -1.2422410402196E-01  1.6167717278037E-01
161  1.6000000000000E+00 -1.1464005777654E-01  1.0822449835080E-01
162  1.6100000000000E+00 -1.0529367761424E-01  5.8449947622269E-02
163  1.6200000000000E+00 -9.6227781919854E-02  1.2438571324188E-02
164  1.6300000000000E+00 -8.7478809308957E-02 -2.9766290633684E-02
165  1.6400000000000E+00 -7.9079304146597E-02 -6.8140128712023E-02
166  1.6500000000000E+00 -7.1057599922214E-02 -1.0267958268500E-01
167  1.6600000000000E+00 -6.3437807940550E-02 -1.3340213404464E-01
168  1.6700000000000E+00 -5.6239787485081E-02 -1.6034609566812E-01
169  1.6800000000000E+00 -4.9479148137436E-02 -1.8357043403770E-01
170  1.6900000000000E+00 -4.3167285529348E-02 -2.0315441525082E-01
171  1.7000000000000E+00 -3.7311449358902E-02 -2.1919708468695E-01
172  1.7100000000000E+00 -3.1914843200164E-02 -2.3181658292694E-01
173  1.7200000000000E+00 -2.6976755394354E-02 -2.4114930168504E-01
174  1.7300000000000E+00 -2.2492719991308E-02 -2.4734888531139E-01
175  1.7400000000000E+00 -1.8454706460640E-02 -2.5058508468731E-01
176  1.7500000000000E+00 -1.4851336610561E-02 -2.5104247187038E-01
177  1.7600000000000E+00 -1.1668126916954E-02 -2.4891902506058E-01
178  1.7700000000000E+00 -8.8877542306432E-03 -2.4442459470276E-01
179  1.7800000000000E+00 -6.4903425866707E-03 -2.3777926288855E-01
180  1.7900000000000E+00 -4.4537686722081E-03 -2.2921160903966E-01
181  1.8000000000000E+00 -2.7539833101194E-03 -2.1895689595451E-01
182  1.8100000000000E+00 -1.3653462181214E-03 -2.0725519072015E-01
183  1.8200000000000E+00 -2.6097088953910E-04 -1.9434943766168E-01
184  1.8300000000000E+00  5.8692297120097E-04 -1.8048349621801E-01
185  1.8400000000000E+00  1.2066524174973E-03 -1.6590015923964E-01
186  1.8500000000000E+00  1.6267152683148E-03 -1.5083918585235E-01
187  1.8600000000000E+00  1.8754330056224E-03 -1.3553532852183E-01
188  1.8700000000000E+00  1.9806034012814E-03 -1.2021641889346E-01
189  1.8800000000000E+00  1.9691418808646E-03 -1.0510142525974E-01
190  1.8900000000000E+00  1.8668060586037E-03 -9.0398848396120E-02
191  1.9000000000000E+00  1.6977670064107E-03 -7.6304582899141E-02
192  1.9100000000000E+00  1.4827700832232E-03 -6.2994214018216E-02
193  1.9200000000000E+00  1.2402753185133E-03 -5.0626895696246E-02
194  1.9300000000000E+00  9.8959987473396E-04 -3.9357281840837E-02
195  1.9400000000000E+00  7.4719083795452E-04 -2.9320933835001E-02
196  1.9500000000000E+00  5.2660009034189E-04 -2.0633847205696E-02
197  1.9600000000000E+00  3.3826509733275E-04 -1.3391303387516E-02
198  1.9700000000000E+00  1.8941325173776E-04 -7.6694355357923E-03
199  1.9800000000000E+00  8.3527324189628E-05 -3.5032171411416E-03
200  1.9900000000000E+00  2.1905755333018E-05 -9.6686009600455E-04
201  2.0000000000000E+00  6.2428909833762E-07 -2.9519896490266E-05
202  2.0100000000000E+00 -6.0779847352940E-07  2.9313909940200E-05
203  2.0200000000000E+00  3.4024639655441E-07 -1.5610298425749E-05
204  2.03 -0.  0.
205  2.04 -0. -0.
206  2.05  0.  0.
207  2.06  0.  0.
208  2.07  0.  0.
209  2.08  0.  0.
210  2.09  0.  0.
211  2.10  0.  0.
212  2.11  0.  0.
213  2.12  0.  0.
214  2.13  0.  0.
215  2.14  0.  0.
216  2.15  0.  0.
217  2.16  0.  0.
218  2.17  0.  0.
219  2.18  0.  0.
220  2.19  0.  0.
221  2.20  0.  0.
222  2.21  0.  0.
223  2.22  0.  0.
224  2.23  0.  0.
225  2.24  0.  0.
226  2.25  0.  0.
227  2.26  0.  0.
228  2.27  0.  0.
229  2.28  0.  0.
230  2.29  0.  0.
231  2.30  0.  0.
232  2.31  0.  0.
233  2.32  0.  0.
234  2.33  0.  0.
235  2.34  0.  0.
236  2.35  0.  0.
237  2.36  0.  0.
238  2.37  0.  0.
239  2.38  0.  0.
240  2.39  0.  0.
241  2.40  0.  0.
242  2.41  0.  0.
243  2.42  0.  0.
244  2.43  0.  0.
245  2.44  0.  0.
246  2.45  0.  0.
247  2.46  0.  0.
248  2.47  0.  0.
249  2.48  0.  0.
250  2.49  0.  0.
251  2.50  0.  0.
252  2.51  0.  0.
253  2.52  0.  0.
254  2.53  0.  0.
255  2.54  0.  0.
256  2.55  0.  0.
257  2.56  0.  0.
258  2.57  0.  0.
259  2.58  0.  0.
260  2.59  0.  0.
261  2.60  0.  0.
262  2.61  0.  0.
263  2.62  0.  0.
264  2.63  0.  0.
265  2.64  0.  0.
266  2.65  0.  0.
267  2.66  0.  0.
268  2.67  0.  0.
269  2.68  0.  0.
270  2.69  0.  0.
271  2.70  0.  0.
272  2.71  0.  0.
273  2.72  0.  0.
274  2.73  0.  0.
275  2.74  0.  0.
276  2.75  0.  0.
277  2.76  0.  0.
278  2.77  0.  0.
279  2.78  0.  0.
280  2.79  0.  0.
281  2.80  0.  0.
282  2.81  0.  0.
283  2.82  0.  0.
284  2.83  0.  0.
285  2.84  0.  0.
286  2.85  0.  0.
287  2.86  0.  0.
288  2.87  0.  0.
289  2.88  0.  0.
290  2.89  0.  0.
291  2.90  0.  0.
292  2.91  0.  0.
293  2.92  0.  0.
294  2.93  0.  0.
295  2.94  0.  0.
296  2.95  0.  0.
297  2.96  0.  0.
298  2.97  0.  0.
299  2.98  0.  0.
300  2.99  0.  0.
301  3.00  0.  0.
302  3.01  0.  0.
303  3.02  0.  0.
304  3.03  0.  0.
305  3.04  0.  0.
306  3.05  0.  0.
307  3.06  0.  0.
308  3.07  0.  0.
309  3.08  0.  0.
310  3.09  0.  0.
311  3.10  0.  0.
312  3.11  0.  0.
313  3.12  0.  0.
314  3.13  0.  0.
315  3.14  0.  0.
316  3.15  0.  0.
317  3.16  0.  0.
318  3.17  0.  0.
319  3.18  0.  0.
320  3.19  0.  0.
321  3.20  0.  0.
322  3.21  0.  0.
323  3.22  0.  0.
324  3.23  0.  0.
325  3.24  0.  0.
326  3.25  0.  0.
327  3.26  0.  0.
328  3.27  0.  0.
329  3.28  0.  0.
330  3.29  0.  0.
331  3.30  0.  0.
332  3.31  0.  0.
333  3.32  0.  0.
334  3.33  0.  0.
335  3.34  0.  0.
336  3.35  0.  0.
337  3.36  0.  0.
338  3.37  0.  0.
339  3.38  0.  0.
340  3.39  0.  0.
341  3.40  0.  0.
342  3.41  0.  0.
343  3.42  0.  0.
344  3.43  0.  0.
345  3.44  0.  0.
346  3.45  0.  0.
347  3.46  0.  0.
348  3.47  0.  0.
349  3.48  0.  0.
350  3.49  0.  0.
351  3.50  0.  0.
352  3.51  0.  0.
353  3.52  0.  0.
354  3.53  0.  0.
355  3.54  0.  0.
356  3.55  0.  0.
357  3.56  0.  0.
358  3.57  0.  0.
359  3.58  0.  0.
360  3.59  0.  0.
361  3.60  0.  0.
362  3.61  0.  0.
363  3.62  0.  0.
364  3.63  0.  0.
365  3.64  0.  0.
366  3.65  0.  0.
367  3.66  0.  0.
368  3.67  0.  0.
369  3.68  0.  0.
370  3.69  0.  0.
371  3.70  0.  0.
372  3.71  0.  0.
373  3.72  0.  0.
374  3.73  0.  0.
375  3.74  0.  0.
376  3.75  0.  0.
377  3.76  0.  0.
378  3.77  0.  0.
379  3.78  0.  0.
380  3.79  0.  0.
381  3.80  0.  0.
382  3.81  0.  0.
383  3.82  0.  0.
384  3.83  0.  0.
385  3.84  0.  0.
386  3.85  0.  0.
387  3.86  0.  0.
388  3.87  0.  0.
389  3.88  0.  0.
390  3.89  0.  0.
391  3.90  0.  0.
392  3.91  0.  0.
393  3.92  0.  0.
394  3.93  0.  0.
395  3.94  0.  0.
396  3.95  0.  0.
397  3.96  0.  0.
398  3.97  0.  0.
399  3.98  0.  0.
400  3.99  0.  0.
401  4.00  0.  0.
402  4.01  0.  0.
403  4.02  0.  0.
404  4.03  0.  0.
405  4.04  0.  0.
406  4.05  0.  0.
407  4.06  0.  0.
408  4.07  0.  0.
409  4.08  0.  0.
410  4.09  0.  0.
411  4.10  0.  0.
412  4.11  0.  0.
413  4.12  0.  0.
414  4.13  0.  0.
415  4.14  0.  0.
416  4.15  0.  0.
417  4.16  0.  0.
418  4.17  0.  0.
419  4.18  0.  0.
420  4.19  0.  0.
421  4.20  0.  0.
422  4.21  0.  0.
423  4.22  0.  0.
424  4.23  0.  0.
425  4.24  0.  0.
426  4.25  0.  0.
427  4.26  0.  0.
428  4.27  0.  0.
429  4.28  0.  0.
430  4.29  0.  0.
431  4.30  0.  0.
432  4.31  0.  0.
433  4.32  0.  0.
434  4.33  0.  0.
435  4.34  0.  0.
436  4.35  0.  0.
437  4.36  0.  0.
438  4.37  0.  0.
439  4.38  0.  0.
440  4.39  0.  0.
441  4.40  0.  0.
442  4.41  0.  0.
443  4.42  0.  0.
444  4.43  0.  0.
445  4.44  0.  0.
446  4.45  0.  0.
447  4.46  0.  0.
448  4.47  0.  0.
449  4.48  0.  0.
450  4.49  0.  0.
451  4.50  0.  0.
452  4.51  0.  0.
453  4.52  0.  0.
454  4.53  0.  0.
455  4.54  0.  0.
456  4.55  0.  0.
457  4.56  0.  0.
458  4.57  0.  0.
459  4.58  0.  0.
460  4.59  0.  0.
461  4.60  0.  0.
462  4.61  0.  0.
463  4.62  0.  0.
464  4.63  0.  0.
465  4.64  0.  0.
466  4.65  0.  0.
467  4.66  0.  0.
468  4.67  0.  0.
469  4.68  0.  0.
470  4.69  0.  0.
471  4.70  0.  0.
472  4.71  0.  0.
473  4.72  0.  0.
474  4.73  0.  0.
475  4.74  0.  0.
476  4.75  0.  0.
477  4.76  0.  0.
478  4.77  0.  0.
479  4.78  0.  0.
480  4.79  0.  0.
481  4.80  0.  0.
482  4.81  0.  0.
483  4.82  0.  0.
484  4.83  0.  0.
485  4.84  0.  0.
486  4.85  0.  0.
487  4.86  0.  0.
488  4.87  0.  0.
489  4.88  0.  0.
490  4.89  0.  0.
491  4.90  0.  0.
492  4.91  0.  0.
493  4.92  0.  0.
494  4.93  0.  0.
495  4.94  0.  0.
496  4.95  0.  0.
497  4.96  0.  0.
498  4.97  0.  0.
499  4.98  0.  0.
500  4.99  0.  0.
501  5.00  0.  0.
502  5.01  0.  0.
503  5.02  0.  0.
504  5.03  0.  0.
505  5.04  0.  0.
506  5.05  0.  0.
507  5.06  0.  0.
508  5.07  0.  0.
509  5.08  0.  0.
510  5.09  0.  0.
511  5.10  0.  0.
512  5.11  0.  0.
513  5.12  0.  0.
514  5.13  0.  0.
515  5.14  0.  0.
516  5.15  0.  0.
517  5.16  0.  0.
518  5.17  0.  0.
519  5.18  0.  0.
520  5.19  0.  0.
521  5.20  0.  0.
522  5.21  0.  0.
523  5.22  0.  0.
524  5.23  0.  0.
525  5.24  0.  0.
526  5.25  0.  0.
527  5.26  0.  0.
528  5.27  0.  0.
529  5.28  0.  0.
530  5.29  0.  0.
531  5.30  0.  0.
532  5.31  0.  0.
533  5.32  0.  0.
534  5.33  0.  0.
535  5.34  0.  0.
536  5.35  0.  0.
537  5.36  0.  0.
538  5.37  0.  0.
539  5.38  0.  0.
540  5.39  0.  0.
541  5.40  0.  0.
542  5.41  0.  0.
543  5.42  0.  0.
544  5.43  0.  0.
545  5.44  0.  0.
546  5.45  0.  0.
547  5.46  0.  0.
548  5.47  0.  0.
549  5.48  0.  0.
550  5.49  0.  0.
551  5.50  0.  0.
552  5.51  0.  0.
553  5.52  0.  0.
554  5.53  0.  0.
555  5.54  0.  0.
556  5.55  0.  0.
557  5.56  0.  0.
558  5.57  0.  0.
559  5.58  0.  0.
560  5.59  0.  0.
561  5.60  0.  0.
562  5.61  0.  0.
563  5.62  0.  0.
564  5.63  0.  0.
565  5.64  0.  0.
566  5.65  0.  0.
567  5.66  0.  0.
568  5.67  0.  0.
569  5.68  0.  0.
570  5.69  0.  0.
571  5.70  0.  0.
572  5.71  0.  0.
573  5.72  0.  0.
574  5.73  0.  0.
575  5.74  0.  0.
576  5.75  0.  0.
577  5.76  0.  0.
578  5.77  0.  0.
579  5.78  0.  0.
580  5.79  0.  0.
581  5.80  0.  0.
582  5.81  0.  0.
583  5.82  0.  0.
584  5.83  0.  0.
585  5.84  0.  0.
586  5.85  0.  0.
587  5.86  0.  0.
588  5.87  0.  0.
589  5.88  0.  0.
590  5.89  0.  0.
591  5.90  0.  0.
592  5.91  0.  0.
593  5.92  0.  0.
594  5.93  0.  0.
595  5.94  0.  0.
596  5.95  0.  0.
597  5.96  0.  0.
598  5.97  0.  0.
599  5.98  0.  0.
600  5.99  0.  0.
1                         4.6696789719921E+00  8.9684912881404E-01
1  0.0000000000000E+00  1.3623259007001E-08 -5.0519269406690E-08
2  1.0000000000000E-02  1.4047420311801E-03 -2.3947544214882E-03
3  2.0000000000000E-02  5.5991206934388E-03 -9.5104945709580E-03
4  3.0000000000000E-02  1.2523993199754E-02 -2.1143129635076E-02
5  4.0000000000000E-02  2.2082111885401E-02 -3.6957406891485E-02
6  5.0000000000000E-02  3.4140081687231E-02 -5.6494155920046E-02
7  6.0000000000000E-02  4.8531045196774E-02 -7.9180225106239E-02
8  7.0000000000000E-02  6.5058041174822E-02 -1.0434090986636E-01
9  8.0000000000000E-02  8.3497968791969E-02 -1.3121462150494E-01
10  9.0000000000000E-02  1.0360607756536E-01 -1.5896950000502E-01
11  1.0000000000000E-01  1.2512089223997E-01 -1.8672163425017E-01
12  1.1000000000000E-01  1.4776947292463E-01 -2.1355451996638E-01
13  1.2000000000000E-01  1.7127290381813E-01 -2.3853935971503E-01
14  1.3000000000000E-01  1.9535189898784E-01 -2.6075579108100E-01
15  1.4000000000000E-01  2.1973241099418E-01 -2.7931261915752E-01
16  1.5000000000000E-01  2.4415112774502E-01 -2.9336812774441E-01
17  1.6000000000000E-01  2.6836074482923E-01 -3.0214955040268E-01
18  1.7000000000000E-01  2.9213490468836E-01 -3.0497129753861E-01
19  1.8000000000000E-01  3.1527270026489E-01 -3.0125155875453E-01
20  1.9000000000000E-01  3.3760264910056E-01 -2.9052693037763E-01
21  2.0000000000000E-01  3.5898605409125E-01 -2.7246475578871E-01
22  2.1000000000000E-01  3.7931967904364E-01 -2.4687291020970E-01
23  2.2000000000000E-01  3.9853768059582E-01 -2.1370681113771E-01
24  2.3000000000000E-01  4.1661275270313E-01 -1.7307348968976E-01
25  2.4000000000000E-01  4.3355645547040E-01 -1.2523261571180E-01
26  2.5000000000000E-01  4.4941871633262E-01 -7.0594429501750E-02
27  2.6000000000000E-01  4.6428650813275E-01 -9.7145942407833E-03
28  2.7000000000000E-01  4.7828172519763E-01  5.6713955465722E-02
29  2.8000000000000E-01  4.9155829474603E-01  1.2787203335984E-01
30  2.9000000000000E-01  5.0429857655853E-01  2.0282789616865E-01
31  3.0000000000000E-01  5.1670911848963E-01  2.8055336523641E-01
32  3.1000000000000E-01  5.2901584881587E-01  3.5994207737846E-01
33  3.2000000000000E-01  5.4145879832135E-01  4.3982952279844E-01
34  3.3000000000000E-01  5.5428645518273E-01  5.1901448993732E-01
35  3.4000000000000E-01  5.6774986391917E-01  5.9628150633610E-01
36  3.5000000000000E-01  5.8209658574819E-01  6.7042384163641E-01
37  3.6000000000000E-01  5.9756464150146E-01  7.4026662420859E-01
38  3.7000000000000E-01  6.1437655971667E-01  8.0468961692219E-01
39  3.8000000000000E-01  6.3273365158798E-01  8.6264920043275E-01
40  3.9000000000000E-01  6.5281063112807E-01  9.1319912405310E-01
41  4.0000000000000E-01  6.7475069321791E-01  9.5550960464300E-01
42  4.1000000000000E-01  6.9866115428772E-01  9.8888438265206E-01
43  4.2000000000000E-01  7.2460975032197E-01  1.0127753809914E+00
44  4.3000000000000E-01  7.5262167489037E-01  1.0267946561393E+00
45  4.4000000000000E-01  7.8267742619352E-01  1.0307233810117E+00
46  4.5000000000000E-01  8.1471151692801E-01  1.0245176547263E+00
47  4.6000000000000E-01  8.4861208440300E-01  1.0083109944300E+00
48  4.7000000000000E-01  8.8422142108706E-01  9.8241342771435E-01
49  4.8000000000000E-01  9.2133742795471E-01  9.4730716961163E-01
50  4.9000000000000E-01  9.5971597497889E-01  9.0363893450824E-01
51  5.0000000000000E-01  9.9907413522244E-01  8.5220899924515E-01
52  5.1000000000000E-01  1.0390942415677E+00  7.9395719793286E-01
53  5.2000000000000E-01  1.0794286985266E+00  7.2994609033120E-01
54  5.3000000000000E-01  1.1197054661232E+00  6.6134160282952E-01
55  5.4000000000000E-01  1.1595341188454E+00  5.8939149297129E-01
56  5.5000000000000E-01  1.1985123703998E+00  5.1540203405626E-01
57  5.6000000000000E-01  1.2362329447360E+00  4.4071335469083E-01
58  5.7000000000000E-01  1.2722906657369E+00  3.6667389844269E-01
59  5.8000000000000E-01  1.3062896322847E+00  2.9461449033754E-01
60  5.9000000000000E-01  1.3378503422385E+00  2.2582250932252E-01
61  6.0000000000000E-01  1.3666166282740E+00  1.6151666869439E-01
62  6.1000000000000E-01  1.3922622705896E+00  1.0282289971135E-01
63  6.2000000000000E-01  1.4144971561465E+00  5.0751817220070E-02
64  6.3000000000000E-01  1.4330728613261E+00  6.1782203646982E-03
65  6.4000000000000E-01  1.4477875445426E+00 -3.0176953289807E-02
66  6.5000000000000E-01  1.4584900472706E+00 -5.7761845001882E-02
67  6.6000000000000E-01  1.4650831159466E+00 -7.6205738992617E-02
68  6.7000000000000E-01  1.4675256730098E+00 -8.5327706479694E-02
69  6.8000000000000E-01  1.4658340826953E+00 -8.5141625759921E-02
70  6.9000000000000E-01  1.4600823757513E+00 -7.5857442180192E-02
71  7.0000000000000E-01  1.4504014166851E+00 -5.7878602787208E-02
72  7.1000000000000E-01  1.4369770170823E+00 -3.1795673346592E-02
73  7.2000000000000E-01  1.4200470186168E+00  1.6237811225480E-03
74  7.3000000000000E-01  1.3998973891939E+00  4.1448898521610E-02
75  7.4000000000000E-01  1.3768573948599E+00  8.6602580391552E-02
76  7.5000000000000E-01  1.3512939283033E+00  1.3588162021955E-01
77  7.6000000000000E-01  1.3236050916043E+00  1.8797954649113E-01
78  7.7000000000000E-01  1.2942131460278E+00  2.4151177189756E-01
79  7.8000000000000E-01  1.2635569547998E+00  2.9504259161580E-01
80  7.9000000000000E-01  1.2320840556836E+00  3.4711353333028E-01
81  8.0000000000000E-01  1.2002425085608E+00  3.9627253050934E-01
82  8.1000000000000E-01  1.1684726689314E+00  4.4110336905583E-01
83  8.2000000000000E-01  1.1371990411518E+00  4.8025484631884E-01
84  8.3000000000000E-01  1.1068223652512E+00  5.1246908088256E-01
85  8.4000000000000E-01  1.0777120882645E+00  5.3660842164629E-01
86  8.5000000000000E-01  1.0501993652487E+00  5.5168042537499E-01
87  8.6000000000000E-01  1.0245707265702E+00  5.5686040283383E-01
88  8.7000000000000E-01  1.0010625368137E+00  5.5151107432259E-01
89  8.8000000000000E-01  9.7985635696315E-01  5.3519892520808E-01
90  8.9000000000000E-01  9.6107530556960E-01  5.0770691004536E-01
91  9.0000000000000E-01  9.4478149674437E-01  4.6904321905322E-01
92  9.1000000000000E-01  9.3097461331438E-01  4.1944589188666E-01
93  9.2000000000000E-01  9.1959165271096E-01  3.5938313953418E-01
94  9.3000000000000E-01  9.1050786151356E-01  2.8954931435818E-01
95  9.4000000000000E-01  9.0353885243943E-01  2.1085654932708E-01
96  9.5000000000000E-01  8.9844387537523E-01  1.2442216883335E-01
97  9.6000000000000E-01  8.9493019220430E-01  3.1552053624405E-02
98  9.7000000000000E-01  8.9265848410674E-01 -6.6279780218434E-02
99  9.8000000000000E-01  8.9124920010736E-01 -1.6745505513536E-01
100  9.9000000000000E-01  8.9028973729549E-01 -2.7023815808618E-01
101  1.0000000000000E+00  8.8934232670627E-01 -3.7280565737540E-01
102  1.0100000000000E+00  8.8795248464091E-01 -4.7327789644581E-01
103  1.0200000000000E+00  8.8565787751710E-01 -5.6975210743421E-01
104  1.0300000000000E+00  8.8199743940126E-01 -6.6033645395347E-01
105  1.0400000000000E+00  8.7652057536383E-01 -7.4318438992897E-01
106  1.0500000000000E+00  8.6879628086568E-01 -8.1652870992889E-01
107  1.0600000000000E+00  8.5842200757580E-01 -8.7871466647707E-01
108  1.0700000000000E+00  8.4503210937710E-01 -9.2823154147778E-01
109  1.0800000000000E+00  8.2830570877110E-01 -9.6374208188112E-01
110  1.0900000000000E+00  8.0797383334800E-01 -9.8410924374173E-01
111  1.1000000000000E+00  7.8382568430369E-01 -9.8841973336100E-01
112  1.1100000000000E+00  7.5571391387719E-01 -9.7600388823391E-01
113  1.1200000000000E+00  7.2355880591687E-01 -9.4645150356798E-01
114  1.1300000000000E+00  6.8735127304081E-01 -8.9962328031091E-01
115  1.1400000000000E+00  6.4715460497603E-01 -8.3565764770267E-01
116  1.1500000000000E+00  6.0310492489211E-01 -7.5497279462350E-01
117  1.1600000000000E+00  5.5541033390784E-01 -6.5826382952458E-01
118  1.1700000000000E+00  5.0434874754721E-01 -5.4649507522212E-01
119  1.1800000000000E+00  4.5026445179710E-01 -4.2088759247951E-01
120  1.1900000000000E+00  3.9356342968369E-01 -2.8290211183945E-01
121  1.2000000000000E+00  3.3470753188189E-01 -1.3421763639920E-01
122  1.2100000000000E+00  2.7420758613338E-01  2.3293943299316E-02
123  1.2200000000000E+00  2.1261555987096E-01  1.8759680847775E-01
124  1.2300000000000E+00  1.5051590814420E-01  3.5652326593321E-01
125  1.2400000000000E+00  8.8516254178111E-02  5.2780836013008E-01
126  1.2500000000000E+00  2.7237562647850E-02  6.9912645938406E-01
127  1.2600000000000E+00 -3.2696024431196E-02  8.6812919470875E-01
128  1.2700000000000E+00 -9.0667512493490E-02  1.0324841035704E+00
129  1.2800000000000E+00 -1.4607735951678E-01  1.1899133158180E+00
130  1.2900000000000E+00 -1.9835358065033E-01  1.3382316160029E+00
131  1.3000000000000E+00 -2.4696147438776E-01  1.4753832247711E+00
132  1.3100000000000E+00 -2.9141279832736E-01  1.5994766623039E+00
133  1.3200000000000E+00 -3.3127423164033E-01  1.7088170881784E+00
134  1.3300000000000E+00 -3.6617497332532E-01  1.8019355539012E+00