Ce    ONCVPSP-4.0.1  r_core=   2.00895   1.60047   1.90366   1.60047
58.0000     12.0000      250626    zatom,zion,pspd
8      11   3     4   600     0    pspcod,pspxc,lmax,lloc,mmax,r2well
5.99000000 46.00000000  0.00000000    rchrg fchrg qchrg
2     2     2     2     0    nproj
1     1           extension_switch
0                         6.6107783824109E+00  7.6343243109029E-01
1  0.0000000000000E+00  1.0783515747015E-10 -2.9984485033774E-10
2  1.0000000000000E-02  3.0158500959034E-02 -4.5460086250413E-03
3  2.0000000000000E-02  6.0319541888020E-02 -9.1061783465830E-03
4  3.0000000000000E-02  9.0485427971356E-02 -1.3694238655911E-02
5  4.0000000000000E-02  1.2065799744235E-01 -1.8323062067367E-02
6  5.0000000000000E-02  1.5083839463014E-01 -2.3004251136513E-02
7  6.0000000000000E-02  1.8102685075631E-01 -2.7747743871238E-02
8  7.0000000000000E-02  2.1122247493679E-01 -3.2561443311047E-02
9  8.0000000000000E-02  2.4142305773666E-01 -3.7450876749919E-02
10  9.0000000000000E-02  2.7162488949277E-01 -4.2418889709637E-02
11  1.0000000000000E-01  3.0182259546287E-01 -4.7465379337603E-02
12  1.1000000000000E-01  3.3200898968189E-01 -5.2587071410399E-02
13  1.2000000000000E-01  3.6217494920749E-01 -5.7777344577773E-02
14  1.3000000000000E-01  3.9230931022093E-01 -6.3026104886906E-02
15  1.4000000000000E-01  4.2239878721692E-01 -6.8319712990989E-02
16  1.5000000000000E-01  4.5242791627077E-01 -7.3640965776139E-02
17  1.6000000000000E-01  4.8237902311410E-01 -7.8969133444420E-02
18  1.7000000000000E-01  5.1223221648628E-01 -8.4280052376038E-02
19  1.8000000000000E-01  5.4196540695774E-01 -8.9546273368857E-02
20  1.9000000000000E-01  5.7155435114873E-01 -9.4737264126682E-02
21  2.0000000000000E-01  6.0097272099419E-01 -9.9819664148030E-02
22  2.1000000000000E-01  6.3019219743534E-01 -1.0475758946201E-01
23  2.2000000000000E-01  6.5918258765483E-01 -1.0951298397709E-01
24  2.3000000000000E-01  6.8791196471706E-01 -1.1404601355876E-01
25  2.4000000000000E-01  7.1634682823101E-01 -1.1831549834244E-01
26  2.5000000000000E-01  7.4445228442344E-01 -1.2227937822525E-01
27  2.6000000000000E-01  7.7219224379664E-01 -1.2589520597192E-01
28  2.7000000000000E-01  7.9952963435038E-01 -1.2912066192236E-01
29  2.8000000000000E-01  8.2642662817406E-01 -1.3191408390770E-01
30  2.9000000000000E-01  8.5284487906445E-01 -1.3423500567273E-01
31  3.0000000000000E-01  8.7874576869824E-01 -1.3604469687015E-01
32  3.1000000000000E-01  9.0409065878857E-01 -1.3730669754026E-01
33  3.2000000000000E-01  9.2884114658227E-01 -1.3798733992035E-01
34  3.3000000000000E-01  9.5295932100977E-01 -1.3805625044451E-01
35  3.4000000000000E-01  9.7640801678443E-01 -1.3748682489634E-01
36  3.5000000000000E-01  9.9915106376133E-01 -1.3625666986600E-01
37  3.6000000000000E-01  1.0211535289088E+00 -1.3434800393623E-01
38  3.7000000000000E-01  1.0423819483174E+00 -1.3174801237970E-01
39  3.8000000000000E-01  1.0628045467724E+00 -1.2844914958778E-01
40  3.9000000000000E-01  1.0823914425409E+00 -1.2444938396610E-01
41  4.0000000000000E-01  1.1011148351839E+00 -1.1975238061908E-01
42  4.1000000000000E-01  1.1189491743756E+00 -1.1436761780032E-01
43  4.2000000000000E-01  1.1358713079213E+00 -1.0831043381961E-01
44  4.3000000000000E-01  1.1518606073830E+00 -1.0160200186551E-01
45  4.4000000000000E-01  1.1668990699666E+00 -9.4269231015196E-02
46  4.5000000000000E-01  1.1809713955819E+00 -8.6344592553375E-02
47  4.6000000000000E-01  1.1940650382576E+00 -7.7865871599758E-02
48  4.7000000000000E-01  1.2061702313789E+00 -6.8875844940520E-02
49  4.8000000000000E-01  1.2172799865011E+00 -5.9421886863472E-02
50  4.9000000000000E-01  1.2273900657917E+00 -4.9555505699462E-02
51  5.0000000000000E-01  1.2364989284482E+00 -3.9331814662349E-02
52  5.1000000000000E-01  1.2446076517325E+00 -2.8808941448366E-02
53  5.2000000000000E-01  1.2517198275543E+00 -1.8047381890289E-02
54  5.3000000000000E-01  1.2578414358149E+00 -7.1093037540223E-03
55  5.4000000000000E-01  1.2629806959939E+00  3.9421924953275E-03
56  5.5000000000000E-01  1.2671478987156E+00  1.5043848453971E-02
57  5.6000000000000E-01  1.2703552192696E+00  2.6133049956355E-02
58  5.7000000000000E-01  1.2726165152758E+00  3.7148648031749E-02
59  5.8000000000000E-01  1.2739471108801E+00  4.8031789563686E-02
60  5.9000000000000E-01  1.2743635700341E+00  5.8726748229297E-02
61  6.0000000000000E-01  1.2738834615520E+00  6.9181746048210E-02
62  6.1000000000000E-01  1.2725251187524E+00  7.9349755727776E-02
63  6.2000000000000E-01  1.2703073965708E+00  8.9189273955358E-02
64  6.3000000000000E-01  1.2672494290769E+00  9.8665055863743E-02
65  6.4000000000000E-01  1.2633703903488E+00  1.0774880108063E-01
66  6.5000000000000E-01  1.2586892616352E+00  1.1641978207153E-01
67  6.6000000000000E-01  1.2532246076859E+00  1.2466540589225E-01
68  6.7000000000000E-01  1.2469943650476E+00  1.3248170098308E-01
69  6.8000000000000E-01  1.2400156450003E+00  1.3987372125573E-01
70  6.9000000000000E-01  1.2323045536644E+00  1.4685586044286E-01
71  7.0000000000000E-01  1.2238760316264E+00  1.5345207049110E-01
72  7.1000000000000E-01  1.2147437152213E+00  1.5969597867504E-01
73  7.2000000000000E-01  1.2049198213799E+00  1.6563089908365E-01
74  7.3000000000000E-01  1.1944150576843E+00  1.7130973517127E-01
75  7.4000000000000E-01  1.1832385590008E+00  1.7679477116366E-01
76  7.5000000000000E-01  1.1713978517566E+00  1.8215735125352E-01
77  7.6000000000000E-01  1.1588988466165E+00  1.8747744669735E-01
78  7.7000000000000E-01  1.1457458599910E+00  1.9284311212477E-01
79  7.8000000000000E-01  1.1319416644740E+00  1.9834983357804E-01
80  7.9000000000000E-01  1.1174875679727E+00  2.0409977200247E-01
81  8.0000000000000E-01  1.1023835209573E+00  2.1020090709125E-01
82  8.1000000000000E-01  1.0866282509241E+00  2.1676608754054E-01
83  8.2000000000000E-01  1.0702194228409E+00  2.2391199487731E-01
84  8.3000000000000E-01  1.0531538240330E+00  2.3175802907120E-01
85  8.4000000000000E-01  1.0354275716670E+00  2.4042512511979E-01
86  8.5000000000000E-01  1.0170363407134E+00  2.5003451069351E-01
87  8.6000000000000E-01  9.9797561001117E-01  2.6070641572975E-01
88  8.7000000000000E-01  9.7824092382656E-01  2.7255874556594E-01
89  8.8000000000000E-01  9.5782816609586E-01  2.8570572979100E-01
90  8.9000000000000E-01  9.3673384436919E-01  3.0025655946379E-01
91  9.0000000000000E-01  9.1495538033344E-01  3.1631402569205E-01
92  9.1000000000000E-01  8.9249140368803E-01  3.3397317277862E-01
93  9.2000000000000E-01  8.6934204607815E-01  3.5331997922347E-01
94  9.3000000000000E-01  8.4550923175866E-01  3.7443007981441E-01
95  9.4000000000000E-01  8.2099696166682E-01  3.9736754185042E-01
96  9.5000000000000E-01  7.9581158762493E-01  4.2218370821788E-01
97  9.6000000000000E-01  7.6996207347255E-01  4.4891611958595E-01
98  9.7000000000000E-01  7.4346024004258E-01  4.7758752740870E-01
99  9.8000000000000E-01  7.1632099104408E-01  5.0820500872243E-01
100  9.9000000000000E-01  6.8856251709482E-01  5.4075919291738E-01
101  1.0000000000000E+00  6.6020647535670E-01  5.7522360975110E-01
102  1.0100000000000E+00  6.3127814246379E-01  6.1155416686813E-01
103  1.0200000000000E+00  6.0180653869301E-01  6.4968876400741E-01
104  1.0300000000000E+00  5.7182452160787E-01  6.8954704992936E-01
105  1.0400000000000E+00  5.4136884770206E-01  7.3103032689184E-01
106  1.0500000000000E+00  5.1048020087870E-01  7.7402160626112E-01
107  1.0600000000000E+00  4.7920318691820E-01  8.1838581757622E-01
108  1.0700000000000E+00  4.4758629340791E-01  8.6397017210913E-01
109  1.0800000000000E+00  4.1568181492802E-01  9.1060468068743E-01
110  1.0900000000000E+00  3.8354574360303E-01  9.5810282429445E-01
111  1.1000000000000E+00  3.5123762543559E-01  1.0062623747380E+00
112  1.1100000000000E+00  3.1882038313321E-01  1.0548663615044E+00
113  1.1200000000000E+00  2.8636010641594E-01  1.1036841797955E+00
114  1.1300000000000E+00  2.5392581105081E-01  1.1524728336978E+00
115  1.1400000000000E+00  2.2158916809316E-01  1.2009783074619E+00
116  1.1500000000000E+00  1.8942420502404E-01  1.2489370569858E+00
117  1.1600000000000E+00  1.5750698065437E-01  1.2960776128034E+00
118  1.1700000000000E+00  1.2591523581834E-01  1.3421222851841E+00
119  1.1800000000000E+00  9.4728022000768E-02  1.3867889613547E+00
120  1.1900000000000E+00  6.4025310134730E-02  1.4297929843518E+00
121  1.2000000000000E+00  3.3887581867150E-02  1.4708491026176E+00
122  1.2100000000000E+00  4.3954056229628E-03  1.5096734791375E+00
123  1.2200000000000E+00 -2.4371000196188E-02  1.5459857486934E+00
124  1.2300000000000E+00 -5.2332214561645E-02  1.5795111116576E+00
125  1.2400000000000E+00 -7.9410069439073E-02  1.6099824526649E+00
126  1.2500000000000E+00 -1.0552811146241E-01  1.6371424724616E+00
127  1.2600000000000E+00 -1.3061206751142E-01  1.6607458212280E+00
128  1.2700000000000E+00 -1.5459031212141E-01  1.6805612216812E+00
129  1.2800000000000E+00 -1.7739433473266E-01  1.6963735702681E+00
130  1.2900000000000E+00 -1.9895920485972E-01  1.7079860047394E+00
131  1.3000000000000E+00 -2.1922403332235E-01  1.7152219263191E+00
132  1.3100000000000E+00 -2.3813242771975E-01  1.7179269645342E+00
133  1.3200000000000E+00 -2.5563294034183E-01  1.7159708725174E+00
134  1.3300000000000E+00 -2.7167950668681E-01  1.7092493402093E+00
135  1.3400000000000E+00 -2.8623187268279E-01  1.6976857123433E+00
136  1.3500000000000E+00 -2.9925600858536E-01  1.6812325973641E+00
137  1.3600000000000E+00 -3.1072450733296E-01  1.6598733524798E+00
138  1.3700000000000E+00 -3.2061696487617E-01  1.6336234288455E+00
139  1.3800000000000E+00 -3.2892033964870E-01  1.6025315593942E+00
140  1.3900000000000E+00 -3.3562928790369E-01  1.5666807700373E+00
141  1.4000000000000E+00 -3.4074647109519E-01  1.5261891928292E+00
142  1.4100000000000E+00 -3.4428283081987E-01  1.4812106571695E+00
143  1.4200000000000E+00 -3.4625782605181E-01  1.4319350322066E+00
144  1.4300000000000E+00 -3.4669962648410E-01  1.3785882902568E+00
145  1.4400000000000E+00 -3.4564525472464E-01  1.3214322572162E+00
146  1.4500000000000E+00 -3.4314066888381E-01  1.2607640116440E+00
147  1.4600000000000E+00 -3.3924077570039E-01  1.1969148893058E+00
148  1.4700000000000E+00 -3.3400936280161E-01  1.1302490445548E+00
149  1.4800000000000E+00 -3.2751893694993E-01  1.0611615138923E+00
150  1.4900000000000E+00 -3.1985045319171E-01  9.9007572037898E-01
151  1.5000000000000E+00 -3.1109291767803E-01  9.1744035021483E-01
152  1.5100000000000E+00 -3.0134284456784E-01  8.4372552475199E-01
153  1.5200000000000E+00 -2.9070354483672E-01  7.6941818239559E-01
154  1.5300000000000E+00 -2.7928422197542E-01  6.9501657521014E-01
155  1.5400000000000E+00 -2.6719884648688E-01  6.2102377461798E-01
156  1.5500000000000E+00 -2.5456477773712E-01  5.4794006922110E-01
157  1.5600000000000E+00 -2.4150109808831E-01  4.7625412549684E-01
158  1.5700000000000E+00 -2.2812662032087E-01  4.0643276884250E-01
159  1.5800000000000E+00 -2.1455752456723E-01  3.3890922467054E-01
160  1.5900000000000E+00 -2.0090457835420E-01  2.7406965646737E-01
161  1.6000000000000E+00 -1.8726989808172E-01  2.1223787558463E-01
162  1.6100000000000E+00 -1.7374357420896E-01  1.5366039300804E-01
163  1.6200000000000E+00 -1.6040560876935E-01  9.8524916626970E-02
164  1.6300000000000E+00 -1.4733029581832E-01  4.6991146622731E-02
165  1.6400000000000E+00 -1.3458641531885E-01 -8.0655223938776E-04
166  1.6500000000000E+00 -1.2223686511894E-01 -4.4760208682911E-02
167  1.6600000000000E+00 -1.1033835704209E-01 -8.4789015743161E-02
168  1.6700000000000E+00 -9.8941168293261E-02 -1.2083987838571E-01
169  1.6800000000000E+00 -8.8088951608407E-02 -1.5288772319661E-01
170  1.6900000000000E+00 -7.7818605545852E-02 -1.8093556705846E-01
171  1.7000000000000E+00 -6.8160205881879E-02 -2.0501434309062E-01
172  1.7100000000000E+00 -5.9136998468053E-02 -2.2518248450469E-01
173  1.7200000000000E+00 -5.0765453356334E-02 -2.4152526907810E-01
174  1.7300000000000E+00 -4.3055379395227E-02 -2.5415392927629E-01
175  1.7400000000000E+00 -3.6010097910843E-02 -2.6320453529667E-01
176  1.7500000000000E+00 -2.9626673561826E-02 -2.6883666021638E-01
177  1.7600000000000E+00 -2.3896199878985E-02 -2.7123183864051E-01
178  1.7700000000000E+00 -1.8804136471780E-02 -2.7059183220964E-01
179  1.7800000000000E+00 -1.4330694427544E-02 -2.6713671695573E-01
180  1.7900000000000E+00 -1.0451265924149E-02 -2.6110280940994E-01
181  1.8000000000000E+00 -7.1368936848298E-03 -2.5274044974466E-01
182  1.8100000000000E+00 -4.3547755005260E-03 -2.4231166171521E-01
183  1.8200000000000E+00 -2.0687987273852E-03 -2.3008771027267E-01
184  1.8300000000000E+00 -2.4009937867455E-04 -2.1634657873519E-01
185  1.8400000000000E+00  1.1723598207797E-03 -2.0137038828848E-01
186  1.8500000000000E+00  2.2111982063500E-03 -1.8544278306993E-01
187  1.8600000000000E+00  2.9200186873760E-03 -1.6884630448809E-01
188  1.8700000000000E+00  3.3428080952474E-03 -1.5185977887749E-01
189  1.8800000000000E+00  3.5233422804586E-03 -1.3475574204251E-01
190  1.8900000000000E+00  3.5045951393374E-03 -1.1779790903076E-01
191  1.9000000000000E+00  3.3282024426272E-03 -1.0123881135628E-01
192  1.9100000000000E+00  3.0337137707830E-03 -8.5317026714141E-02
193  1.9200000000000E+00  2.6565220695649E-03 -7.0251361853161E-02
194  1.9300000000000E+00  2.2301394456629E-03 -5.6245049247546E-02
195  1.9400000000000E+00  1.7867910611892E-03 -4.3486348665501E-02
196  1.9500000000000E+00  1.3545584819365E-03 -3.2141369545289E-02
197  1.9600000000000E+00  9.5732999083472E-04 -2.2353227369577E-02
198  1.9700000000000E+00  6.1443774590301E-04 -1.4240617532292E-02
199  1.9800000000000E+00  3.4051665348690E-04 -7.8997855276220E-03
200  1.9900000000000E+00  1.4400226430657E-04 -3.3711772544400E-03
201  2.0000000000000E+00  3.3157869239564E-05 -7.9063948281016E-04
202  2.0100000000000E+00 -1.1945228589742E-06  2.8952472764207E-05
203  2.0200000000000E+00 -4.7463568617143E-07  1.1630411244839E-05
204  2.03  0. -0.
205  2.04 -0.  0.
206  2.05 -0. -0.
207  2.06  0.  0.
208  2.07  0.  0.
209  2.08  0.  0.
210  2.09  0.  0.
211  2.10  0.  0.
212  2.11  0.  0.
213  2.12  0.  0.
214  2.13  0.  0.
215  2.14  0.  0.
216  2.15  0.  0.
217  2.16  0.  0.
218  2.17  0.  0.
219  2.18  0.  0.
220  2.19  0.  0.
221  2.20  0.  0.
222  2.21  0.  0.
223  2.22  0.  0.
224  2.23  0.  0.
225  2.24  0.  0.
226  2.25  0.  0.
227  2.26  0.  0.
228  2.27  0.  0.
229  2.28  0.  0.
230  2.29  0.  0.
231  2.30  0.  0.
232  2.31  0.  0.
233  2.32  0.  0.
234  2.33  0.  0.
235  2.34  0.  0.
236  2.35  0.  0.
237  2.36  0.  0.
238  2.37  0.  0.
239  2.38  0.  0.
240  2.39  0.  0.
241  2.40  0.  0.
242  2.41  0.  0.
243  2.42  0.  0.
244  2.43  0.  0.
245  2.44  0.  0.
246  2.45  0.  0.
247  2.46  0.  0.
248  2.47  0.  0.
249  2.48  0.  0.
250  2.49  0.  0.
251  2.50  0.  0.
252  2.51  0.  0.
253  2.52  0.  0.
254  2.53  0.  0.
255  2.54  0.  0.
256  2.55  0.  0.
257  2.56  0.  0.
258  2.57  0.  0.
259  2.58  0.  0.
260  2.59  0.  0.
261  2.60  0.  0.
262  2.61  0.  0.
263  2.62  0.  0.
264  2.63  0.  0.
265  2.64  0.  0.
266  2.65  0.  0.
267  2.66  0.  0.
268  2.67  0.  0.
269  2.68  0.  0.
270  2.69  0.  0.
271  2.70  0.  0.
272  2.71  0.  0.
273  2.72  0.  0.
274  2.73  0.  0.
275  2.74  0.  0.
276  2.75  0.  0.
277  2.76  0.  0.
278  2.77  0.  0.
279  2.78  0.  0.
280  2.79  0.  0.
281  2.80  0.  0.
282  2.81  0.  0.
283  2.82  0.  0.
284  2.83  0.  0.
285  2.84  0.  0.
286  2.85  0.  0.
287  2.86  0.  0.
288  2.87  0.  0.
289  2.88  0.  0.
290  2.89  0.  0.
291  2.90  0.  0.
292  2.91  0.  0.
293  2.92  0.  0.
294  2.93  0.  0.
295  2.94  0.  0.
296  2.95  0.  0.
297  2.96  0.  0.
298  2.97  0.  0.
299  2.98  0.  0.
300  2.99  0.  0.
301  3.00  0.  0.
302  3.01  0.  0.
303  3.02  0.  0.
304  3.03  0.  0.
305  3.04  0.  0.
306  3.05  0.  0.
307  3.06  0.  0.
308  3.07  0.  0.
309  3.08  0.  0.
310  3.09  0.  0.
311  3.10  0.  0.
312  3.11  0.  0.
313  3.12  0.  0.
314  3.13  0.  0.
315  3.14  0.  0.
316  3.15  0.  0.
317  3.16  0.  0.
318  3.17  0.  0.
319  3.18  0.  0.
320  3.19  0.  0.
321  3.20  0.  0.
322  3.21  0.  0.
323  3.22  0.  0.
324  3.23  0.  0.
325  3.24  0.  0.
326  3.25  0.  0.
327  3.26  0.  0.
328  3.27  0.  0.
329  3.28  0.  0.
330  3.29  0.  0.
331  3.30  0.  0.
332  3.31  0.  0.
333  3.32  0.  0.
334  3.33  0.  0.
335  3.34  0.  0.
336  3.35  0.  0.
337  3.36  0.  0.
338  3.37  0.  0.
339  3.38  0.  0.
340  3.39  0.  0.
341  3.40  0.  0.
342  3.41  0.  0.
343  3.42  0.  0.
344  3.43  0.  0.
345  3.44  0.  0.
346  3.45  0.  0.
347  3.46  0.  0.
348  3.47  0.  0.
349  3.48  0.  0.
350  3.49  0.  0.
351  3.50  0.  0.
352  3.51  0.  0.
353  3.52  0.  0.
354  3.53  0.  0.
355  3.54  0.  0.
356  3.55  0.  0.
357  3.56  0.  0.
358  3.57  0.  0.
359  3.58  0.  0.
360  3.59  0.  0.
361  3.60  0.  0.
362  3.61  0.  0.
363  3.62  0.  0.
364  3.63  0.  0.
365  3.64  0.  0.
366  3.65  0.  0.
367  3.66  0.  0.
368  3.67  0.  0.
369  3.68  0.  0.
370  3.69  0.  0.
371  3.70  0.  0.
372  3.71  0.  0.
373  3.72  0.  0.
374  3.73  0.  0.
375  3.74  0.  0.
376  3.75  0.  0.
377  3.76  0.  0.
378  3.77  0.  0.
379  3.78  0.  0.
380  3.79  0.  0.
381  3.80  0.  0.
382  3.81  0.  0.
383  3.82  0.  0.
384  3.83  0.  0.
385  3.84  0.  0.
386  3.85  0.  0.
387  3.86  0.  0.
388  3.87  0.  0.
389  3.88  0.  0.
390  3.89  0.  0.
391  3.90  0.  0.
392  3.91  0.  0.
393  3.92  0.  0.
394  3.93  0.  0.
395  3.94  0.  0.
396  3.95  0.  0.
397  3.96  0.  0.
398  3.97  0.  0.
399  3.98  0.  0.
400  3.99  0.  0.
401  4.00  0.  0.
402  4.01  0.  0.
403  4.02  0.  0.
404  4.03  0.  0.
405  4.04  0.  0.
406  4.05  0.  0.
407  4.06  0.  0.
408  4.07  0.  0.
409  4.08  0.  0.
410  4.09  0.  0.
411  4.10  0.  0.
412  4.11  0.  0.
413  4.12  0.  0.
414  4.13  0.  0.
415  4.14  0.  0.
416  4.15  0.  0.
417  4.16  0.  0.
418  4.17  0.  0.
419  4.18  0.  0.
420  4.19  0.  0.
421  4.20  0.  0.
422  4.21  0.  0.
423  4.22  0.  0.
424  4.23  0.  0.
425  4.24  0.  0.
426  4.25  0.  0.
427  4.26  0.  0.
428  4.27  0.  0.
429  4.28  0.  0.
430  4.29  0.  0.
431  4.30  0.  0.
432  4.31  0.  0.
433  4.32  0.  0.
434  4.33  0.  0.
435  4.34  0.  0.
436  4.35  0.  0.
437  4.36  0.  0.
438  4.37  0.  0.
439  4.38  0.  0.
440  4.39  0.  0.
441  4.40  0.  0.
442  4.41  0.  0.
443  4.42  0.  0.
444  4.43  0.  0.
445  4.44  0.  0.
446  4.45  0.  0.
447  4.46  0.  0.
448  4.47  0.  0.
449  4.48  0.  0.
450  4.49  0.  0.
451  4.50  0.  0.
452  4.51  0.  0.
453  4.52  0.  0.
454  4.53  0.  0.
455  4.54  0.  0.
456  4.55  0.  0.
457  4.56  0.  0.
458  4.57  0.  0.
459  4.58  0.  0.
460  4.59  0.  0.
461  4.60  0.  0.
462  4.61  0.  0.
463  4.62  0.  0.
464  4.63  0.  0.
465  4.64  0.  0.
466  4.65  0.  0.
467  4.66  0.  0.
468  4.67  0.  0.
469  4.68  0.  0.
470  4.69  0.  0.
471  4.70  0.  0.
472  4.71  0.  0.
473  4.72  0.  0.
474  4.73  0.  0.
475  4.74  0.  0.
476  4.75  0.  0.
477  4.76  0.  0.
478  4.77  0.  0.
479  4.78  0.  0.
480  4.79  0.  0.
481  4.80  0.  0.
482  4.81  0.  0.
483  4.82  0.  0.
484  4.83  0.  0.
485  4.84  0.  0.
486  4.85  0.  0.
487  4.86  0.  0.
488  4.87  0.  0.
489  4.88  0.  0.
490  4.89  0.  0.
491  4.90  0.  0.
492  4.91  0.  0.
493  4.92  0.  0.
494  4.93  0.  0.
495  4.94  0.  0.
496  4.95  0.  0.
497  4.96  0.  0.
498  4.97  0.  0.
499  4.98  0.  0.
500  4.99  0.  0.
501  5.00  0.  0.
502  5.01  0.  0.
503  5.02  0.  0.
504  5.03  0.  0.
505  5.04  0.  0.
506  5.05  0.  0.
507  5.06  0.  0.
508  5.07  0.  0.
509  5.08  0.  0.
510  5.09  0.  0.
511  5.10  0.  0.
512  5.11  0.  0.
513  5.12  0.  0.
514  5.13  0.  0.
515  5.14  0.  0.
516  5.15  0.  0.
517  5.16  0.  0.
518  5.17  0.  0.
519  5.18  0.  0.
520  5.19  0.  0.
521  5.20  0.  0.
522  5.21  0.  0.
523  5.22  0.  0.
524  5.23  0.  0.
525  5.24  0.  0.
526  5.25  0.  0.
527  5.26  0.  0.
528  5.27  0.  0.
529  5.28  0.  0.
530  5.29  0.  0.
531  5.30  0.  0.
532  5.31  0.  0.
533  5.32  0.  0.
534  5.33  0.  0.
535  5.34  0.  0.
536  5.35  0.  0.
537  5.36  0.  0.
538  5.37  0.  0.
539  5.38  0.  0.
540  5.39  0.  0.
541  5.40  0.  0.
542  5.41  0.  0.
543  5.42  0.  0.
544  5.43  0.  0.
545  5.44  0.  0.
546  5.45  0.  0.
547  5.46  0.  0.
548  5.47  0.  0.
549  5.48  0.  0.
550  5.49  0.  0.
551  5.50  0.  0.
552  5.51  0.  0.
553  5.52  0.  0.
554  5.53  0.  0.
555  5.54  0.  0.
556  5.55  0.  0.
557  5.56  0.  0.
558  5.57  0.  0.
559  5.58  0.  0.
560  5.59  0.  0.
561  5.60  0.  0.
562  5.61  0.  0.
563  5.62  0.  0.
564  5.63  0.  0.
565  5.64  0.  0.
566  5.65  0.  0.
567  5.66  0.  0.
568  5.67  0.  0.
569  5.68  0.  0.
570  5.69  0.  0.
571  5.70  0.  0.
572  5.71  0.  0.
573  5.72  0.  0.
574  5.73  0.  0.
575  5.74  0.  0.
576  5.75  0.  0.
577  5.76  0.  0.
578  5.77  0.  0.
579  5.78  0.  0.
580  5.79  0.  0.
581  5.80  0.  0.
582  5.81  0.  0.
583  5.82  0.  0.
584  5.83  0.  0.
585  5.84  0.  0.
586  5.85  0.  0.
587  5.86  0.  0.
588  5.87  0.  0.
589  5.88  0.  0.
590  5.89  0.  0.
591  5.90  0.  0.
592  5.91  0.  0.
593  5.92  0.  0.
594  5.93  0.  0.
595  5.94  0.  0.
596  5.95  0.  0.
597  5.96  0.  0.
598  5.97  0.  0.
599  5.98  0.  0.
600  5.99  0.  0.
1                         5.1382153356129E+00  1.7726763706994E+00
1  0.0000000000000E+00  2.4258534708776E-08 -3.7204735479912E-08
2  1.0000000000000E-02  1.5331997851094E-03 -1.2016845060180E-03
3  2.0000000000000E-02  6.1008632700039E-03 -4.7599677417351E-03
4  3.0000000000000E-02  1.3607879194846E-02 -1.0535602233808E-02
5  4.0000000000000E-02  2.3898035607354E-02 -1.8300031412090E-02
6  5.0000000000000E-02  3.6757430118381E-02 -2.7740596782553E-02
7  6.0000000000000E-02  5.1919145350328E-02 -3.8467676229398E-02
8  7.0000000000000E-02  6.9069093033092E-02 -5.0023605339779E-02
9  8.0000000000000E-02  8.7852905943753E-02 -6.1893196439802E-02
10  9.0000000000000E-02  1.0788373503313E-01 -7.3515636522436E-02
11  1.0000000000000E-01  1.2875079007265E-01 -8.4297516109254E-02
12  1.1000000000000E-01  1.5002844637119E-01 -9.3626716906409E-02
13  1.2000000000000E-01  1.7128572787402E-01 -1.0088686738207E-01
14  1.3000000000000E-01  1.9209596851540E-01 -1.0547206249335E-01
15  1.4000000000000E-01  2.1204644923033E-01 -1.0680153699686E-01
16  1.5000000000000E-01  2.3074780763925E-01 -1.0433398124077E-01
17  1.6000000000000E-01  2.4784302112153E-01 -9.7581194087865E-02
18  1.7000000000000E-01  2.6301577173046E-01 -8.6120779564617E-02
19  1.8000000000000E-01  2.7599801303372E-01 -6.9607611755836E-02
20  1.9000000000000E-01  2.8657657427378E-01 -4.7783816034523E-02
21  2.0000000000000E-01  2.9459865594286E-01 -2.0487043486654E-02
22  2.1000000000000E-01  2.9997609260097E-01  1.2343151187854E-02
23  2.2000000000000E-01  3.0268828311597E-01  5.0660980586714E-02
24  2.3000000000000E-01  3.0278371500095E-01  9.4312255902957E-02
25  2.4000000000000E-01  3.0038003765292E-01  1.4303444697350E-01
26  2.5000000000000E-01  2.9566266850890E-01  1.9645899458521E-01
27  2.6000000000000E-01  2.8888194585858E-01  2.5411585291735E-01
28  2.7000000000000E-01  2.8034887170188E-01  3.1544019450268E-01
29  2.8000000000000E-01  2.7042951702733E-01  3.7978116562555E-01
30  2.9000000000000E-01  2.5953818963749E-01  4.4641253753131E-01
31  3.0000000000000E-01  2.4812949060199E-01  5.1454505905206E-01
32  3.1000000000000E-01  2.3668940905600E-01  5.8334028006326E-01
33  3.2000000000000E-01  2.2572562589611E-01  6.5192558331561E-01
34  3.3000000000000E-01  2.1575721452947E-01  7.1941013529574E-01
35  3.4000000000000E-01  2.0730394083257E-01  7.8490144542609E-01
36  3.5000000000000E-01  2.0087537457262E-01  8.4752220758045E-01
37  3.6000000000000E-01  1.9696003050744E-01  9.0642708891607E-01
38  3.7000000000000E-01  1.9601475906090E-01  9.6081912863230E-01
39  3.8000000000000E-01  1.9845460380183E-01  1.0099654135594E+00
40  3.9000000000000E-01  2.0464333595386E-01  1.0532117084289E+00
41  4.0000000000000E-01  2.1488486493188E-01  1.0899957361192E+00
42  4.1000000000000E-01  2.2941570862440E-01  1.1198588268190E+00
43  4.2000000000000E-01  2.4839868808329E-01  1.1424556844944E+00
44  4.3000000000000E-01  2.7191798878569E-01  1.1575620537585E+00
45  4.4000000000000E-01  2.9997570510584E-01  1.1650801095837E+00
46  4.5000000000000E-01  3.3248995655173E-01  1.1650414355491E+00
47  4.6000000000000E-01  3.6929463420712E-01  1.1576075026512E+00
48  4.7000000000000E-01  4.1014080424529E-01  1.1430676092579E+00
49  4.8000000000000E-01  4.5469976294944E-01  1.1218342926189E+00
50  4.9000000000000E-01  5.0256770501146E-01  1.0944362724960E+00
51  5.0000000000000E-01  5.5327193462149E-01  1.0615090369687E+00
52  5.1000000000000E-01  6.0627851763785E-01  1.0237832283298E+00
53  5.2000000000000E-01  6.6100124356019E-01  9.8207103225458E-01
54  5.3000000000000E-01  7.1681173871004E-01  9.3725081520990E-01
55  5.4000000000000E-01  7.7305054750664E-01  8.9025029249497E-01
56  5.5000000000000E-01  8.2903897751822E-01  8.4202854161877E-01
57  5.6000000000000E-01  8.8409148651451E-01  7.9355720222264E-01
58  5.7000000000000E-01  9.3752837642421E-01  7.4580122388071E-01
59  5.8000000000000E-01  9.8868855021218E-01  6.9969953639431E-01
60  5.9000000000000E-01  1.0369420834539E+00  6.5614602330756E-01
61  6.0000000000000E-01  1.0817023629304E+00  6.1597117811566E-01
62  6.1000000000000E-01  1.1224375499359E+00  5.7992481395849E-01
63  6.2000000000000E-01  1.1586811361257E+00  5.4866018157926E-01
64  6.3000000000000E-01  1.1900413744982E+00  5.2271982721131E-01
65  6.4000000000000E-01  1.2162093872478E+00  5.0252349220617E-01
66  6.5000000000000E-01  1.2369657754459E+00  4.8835832013742E-01
67  6.6000000000000E-01  1.2521855823750E+00  4.8037159543822E-01
68  6.7000000000000E-01  1.2618414923949E+00  4.7856619109930E-01
69  6.8000000000000E-01  1.2660051799084E+00  4.8279885241528E-01
70  6.9000000000000E-01  1.2648467577080E+00  4.9278139015545E-01
71  7.0000000000000E-01  1.2586323100926E+00  5.0808480084559E-01
72  7.1000000000000E-01  1.2477195329425E+00  5.2814627514269E-01
73  7.2000000000000E-01  1.2325515397579E+00  5.5227899863472E-01
74  7.3000000000000E-01  1.2136489287619E+00  5.7968459390818E-01
75  7.4000000000000E-01  1.1916002408684E+00  6.0946799947158E-01
76  7.5000000000000E-01  1.1670509709202E+00  6.4065453115582E-01
77  7.6000000000000E-01  1.1406913244682E+00  6.7220882593431E-01
78  7.7000000000000E-01  1.1132429388889E+00  7.0305532763976E-01
79  7.8000000000000E-01  1.0854448102792E+00  7.3209993963766E-01
80  7.9000000000000E-01  1.0580386858411E+00  7.5825244187907E-01
81  8.0000000000000E-01  1.0317541949928E+00  7.8044924950181E-01
82  8.1000000000000E-01  1.0072940008925E+00  7.9767607775009E-01
83  8.2000000000000E-01  9.8531925723336E-01  8.0899007376347E-01
84  8.3000000000000E-01  9.6643565293538E-01  8.1354097991730E-01
85  8.4000000000000E-01  9.5118031972418E-01  8.1059090589132E-01
86  8.5000000000000E-01  9.4000986461811E-01  7.9953230735377E-01
87  8.6000000000000E-01  9.3328977125515E-01  7.7990379776828E-01
88  8.7000000000000E-01  9.3128539105941E-01  7.5140345590038E-01
89  8.8000000000000E-01  9.3415471786779E-01  7.1389933451064E-01
90  8.9000000000000E-01  9.4194310828552E-01  6.6743692472929E-01
91  9.0000000000000E-01  9.5458007527016E-01  6.1224338484496E-01
92  9.1000000000000E-01  9.7187824489020E-01  5.4872840072646E-01
93  9.2000000000000E-01  9.9353452654233E-01  4.7748160677684E-01
94  9.3000000000000E-01  1.0191335058843E+00  3.9926656004227E-01
95  9.4000000000000E-01  1.0481530281043E+00  3.1501132468884E-01
96  9.5000000000000E-01  1.0799718976912E+00  2.2579578829968E-01
97  9.6000000000000E-01  1.1138795803686E+00  1.3283589412271E-01
98  9.7000000000000E-01  1.1490877541073E+00  3.7465033297378E-02
99  9.8000000000000E-01  1.1847435198418E+00 -5.8887102907449E-02
100  9.9000000000000E-01  1.2199440494370E+00 -1.5471785984022E-01
101  1.0000000000000E+00  1.2537524191962E+00 -2.4847674921957E-01
102  1.0100000000000E+00  1.2852143523837E+00 -3.3859193787044E-01
103  1.0200000000000E+00  1.3133755743184E+00 -4.2349763102602E-01
104  1.0300000000000E+00  1.3372994690325E+00 -5.0166186373726E-01
105  1.0400000000000E+00  1.3560847175747E+00 -5.7161420066789E-01
106  1.0500000000000E+00  1.3688825949702E+00 -6.3197284040211E-01
107  1.0600000000000E+00  1.3749136057631E+00 -6.8147062553012E-01
108  1.0700000000000E+00  1.3734831468989E+00 -7.1897947410218E-01
109  1.0800000000000E+00  1.3639959014037E+00 -7.4353277148734E-01
110  1.0900000000000E+00  1.3459686865484E+00 -7.5434529367993E-01
111  1.1000000000000E+00  1.3190415057222E+00 -7.5083027334511E-01
112  1.1100000000000E+00  1.2829865835459E+00 -7.3261326750630E-01
113  1.1200000000000E+00  1.2377151983331E+00 -6.9954254001633E-01
114  1.1300000000000E+00  1.1832821642885E+00 -6.5169573189725E-01
115  1.1400000000000E+00  1.1198878569920E+00 -5.8938265702363E-01
116  1.1500000000000E+00  1.0478777192254E+00 -5.1314412861968E-01
117  1.1600000000000E+00  9.6773922899903E-01 -4.2374679201096E-01
118  1.1700000000000E+00  8.8009635718117E-01 -3.2217401015753E-01
119  1.1800000000000E+00  7.8570158737791E-01 -2.0961291907572E-01
120  1.1900000000000E+00  6.8542561490492E-01 -8.7437839172950E-02
121  1.2000000000000E+00  5.8024488413944E-01  4.2809705316925E-02
122  1.2100000000000E+00  4.7122716310388E-01  1.7944404495629E-01
123  1.2200000000000E+00  3.5951539064810E-01  3.2066113105072E-01
124  1.2300000000000E+00  2.4631006372147E-01  4.6456658814383E-01
125  1.2400000000000E+00  1.3285045995902E-01  6.0920558908204E-01
126  1.2500000000000E+00  2.0395013260338E-02  7.5259405368695E-01
127  1.2600000000000E+00 -8.9798823114123E-02  8.9275064581578E-01
128  1.2700000000000E+00 -1.9649488034931E-01  1.0277290263354E+00
129  1.2800000000000E+00 -2.9849839439185E-01  1.1556498119838E+00
130  1.2900000000000E+00 -3.9467559366319E-01  1.2747316920043E+00
131  1.3000000000000E+00 -4.8397241262236E-01  1.3833211661121E+00
132  1.3100000000000E+00 -5.6543200325213E-01  1.4799203884236E+00
133  1.3200000000000E+00 -6.3821073589041E-01  1.5632126319376E+00
134  1.3300000000000E+00 -7.0159240585551E-01  1.6320849269211E+00