Ce    ONCVPSP-4.0.1  r_core=   2.00895   1.60047   1.90366   1.60047
58.0000     12.0000      250707    zatom,zion,pspd
8      11   3     4   600     0    pspcod,pspxc,lmax,lloc,mmax,r2well
5.99000000 49.00000000  0.00000000    rchrg fchrg qchrg
2     2     2     2     0    nproj
1     1           extension_switch
0                         7.0189897147563E+00  4.9794444099648E-01
1  0.0000000000000E+00  6.4941774180483E-11 -2.6354219154201E-10
2  1.0000000000000E-02  3.1036315342376E-02 -1.6329794474097E-03
3  2.0000000000000E-02  6.2074821336800E-02 -3.3137118392204E-03
4  3.0000000000000E-02  9.3117509412871E-02 -5.0893388991266E-03
5  4.0000000000000E-02  1.2416597439388E-01 -7.0057864018297E-03
6  5.0000000000000E-02  1.5522122077351E-01 -9.1071723620467E-03
7  6.0000000000000E-02  1.8628347444199E-01 -1.1435234431202E-02
8  7.0000000000000E-02  2.1735200160138E-01 -1.4028782592250E-02
9  8.0000000000000E-02  2.4842493654471E-01 -1.6923182979548E-02
10  9.0000000000000E-02  2.7949911989363E-01 -2.0149878326318E-02
11  1.0000000000000E-01  3.1056994879494E-01 -2.3735950160378E-02
12  1.1000000000000E-01  3.4163124046835E-01 -2.7703727432936E-02
13  1.2000000000000E-01  3.7267511037748E-01 -3.2070445780556E-02
14  1.3000000000000E-01  4.0369186616453E-01 -3.6847961090563E-02
15  1.4000000000000E-01  4.3466991834671E-01 -4.2042520472040E-02
16  1.5000000000000E-01  4.6559570862231E-01 -4.7654593132596E-02
17  1.6000000000000E-01  4.9645365647563E-01 -5.3678763032230E-02
18  1.7000000000000E-01  5.2722612460598E-01 -6.0103684536067E-02
19  1.8000000000000E-01  5.5789340353739E-01 -6.6912101623936E-02
20  1.9000000000000E-01  5.8843371559385E-01 -7.4080930543760E-02
21  2.0000000000000E-01  6.1882323825242E-01 -8.1581405124591E-02
22  2.1000000000000E-01  6.4903614671347E-01 -8.9379283300080E-02
23  2.2000000000000E-01  6.7904467535721E-01 -9.7435112742065E-02
24  2.3000000000000E-01  7.0881919758796E-01 -1.0570455287308E-01
25  2.4000000000000E-01  7.3832832340582E-01 -1.1413874992203E-01
26  2.5000000000000E-01  7.6753901388947E-01 -1.2268476111693E-01
27  2.6000000000000E-01  7.9641671162643E-01 -1.3128602357661E-01
28  2.7000000000000E-01  8.2492548598854E-01 -1.3988286297708E-01
29  2.8000000000000E-01  8.5302819202294E-01 -1.4841303663162E-01
30  2.9000000000000E-01  8.8068664161273E-01 -1.5681230524272E-01
31  3.0000000000000E-01  9.0786178545857E-01 -1.6501502726176E-01
32  3.1000000000000E-01  9.3451390434317E-01 -1.7295476953347E-01
33  3.2000000000000E-01  9.6060280806595E-01 -1.8056492770885E-01
34  3.3000000000000E-01  9.8608804037602E-01 -1.8777934978572E-01
35  3.4000000000000E-01  1.0109290881876E+00 -1.9453295608099E-01
36  3.5000000000000E-01  1.0350855933351E+00 -2.0076234895495E-01
37  3.6000000000000E-01  1.0585175651140E+00 -2.0640640569541E-01
38  3.7000000000000E-01  1.0811855918585E+00 -2.1140684812720E-01
39  3.8000000000000E-01  1.1030510498298E+00 -2.1570878274009E-01
40  3.9000000000000E-01  1.1240763077251E+00 -2.1926120542329E-01
41  4.0000000000000E-01  1.1442249251730E+00 -2.2201746525422E-01
42  4.1000000000000E-01  1.1634618436466E+00 -2.2393568221033E-01
43  4.2000000000000E-01  1.1817535683110E+00 -2.2497911415117E-01
44  4.3000000000000E-01  1.1990683394176E+00 -2.2511646894943E-01
45  4.4000000000000E-01  1.2153762919639E+00 -2.2432215822763E-01
46  4.5000000000000E-01  1.2306496024612E+00 -2.2257648977737E-01
47  4.6000000000000E-01  1.2448626217798E+00 -2.1986579639393E-01
48  4.7000000000000E-01  1.2579919931811E+00 -2.1618249954208E-01
49  4.8000000000000E-01  1.2700167547927E+00 -2.1152510697526E-01
50  4.9000000000000E-01  1.2809184259323E+00 -2.0589814414893E-01
51  5.0000000000000E-01  1.2906810768455E+00 -1.9931201999585E-01
52  5.1000000000000E-01  1.2992913815779E+00 -1.9178282835514E-01
53  5.2000000000000E-01  1.3067386538644E+00 -1.8333208706349E-01
54  5.3000000000000E-01  1.3130148660756E+00 -1.7398641741579E-01
55  5.4000000000000E-01  1.3181146514193E+00 -1.6377716737776E-01
56  5.5000000000000E-01  1.3220352897480E+00 -1.5273998257628E-01
57  5.6000000000000E-01  1.3247766774698E+00 -1.4091432969767E-01
58  5.7000000000000E-01  1.3263412822019E+00 -1.2834297748274E-01
59  5.8000000000000E-01  1.3267340829379E+00 -1.1507144101465E-01
60  5.9000000000000E-01  1.3259624966227E+00 -1.0114739544440E-01
61  6.0000000000000E-01  1.3240362921413E+00 -8.6620065684614E-02
62  6.1000000000000E-01  1.3209674928260E+00 -7.1539598920621E-02
63  6.2000000000000E-01  1.3167702686772E+00 -5.5956427034678E-02
64  6.3000000000000E-01  1.3114608195620E+00 -3.9920626210363E-02
65  6.4000000000000E-01  1.3050572507178E+00 -2.3481281079429E-02
66  6.5000000000000E-01  1.2975794419294E+00 -6.6858607894504E-03
67  6.6000000000000E-01  1.2890489117808E+00  1.0420385693649E-02
68  6.7000000000000E-01  1.2794886783915E+00  2.7795007875624E-02
69  6.8000000000000E-01  1.2689231180525E+00  4.5398898665494E-02
70  6.9000000000000E-01  1.2573778231536E+00  6.3196799294285E-02
71  7.0000000000000E-01  1.2448794607697E+00  8.1157757937152E-02
72  7.1000000000000E-01  1.2314556332219E+00  9.9255536195212E-02
73  7.2000000000000E-01  1.2171347418758E+00  1.1746895809928E-01
74  7.3000000000000E-01  1.2019458553651E+00  1.3578219686312E-01
75  7.4000000000000E-01  1.1859185833473E+00  1.5418499523494E-01
76  7.5000000000000E-01  1.1690829568050E+00  1.7267281596315E-01
77  7.6000000000000E-01  1.1514693158034E+00  1.9124691960175E-01
78  7.7000000000000E-01  1.1331082055050E+00  2.0991436762311E-01
79  7.8000000000000E-01  1.1140302811268E+00  2.2868794957319E-01
80  7.9000000000000E-01  1.0942662224018E+00  2.4758603378895E-01
81  8.0000000000000E-01  1.0738466579844E+00  2.6663234199166E-01
82  8.1000000000000E-01  1.0528021001119E+00  2.8585564886209E-01
83  8.2000000000000E-01  1.0311628897065E+00  3.0528940849056E-01
84  8.3000000000000E-01  1.0089591519795E+00  3.2497131036155E-01
85  8.4000000000000E-01  9.8622076247505E-01  3.4494276827705E-01
86  8.5000000000000E-01  9.6297732337301E-01  3.6524834633356E-01
87  8.6000000000000E-01  9.3925814975912E-01  3.8593512673787E-01
88  8.7000000000000E-01  9.1509226546433E-01  4.0705202487055E-01
89  8.8000000000000E-01  8.9050840797800E-01  4.2864905757628E-01
90  8.9000000000000E-01  8.6553504185148E-01  4.5077657117156E-01
91  9.0000000000000E-01  8.4020037992995E-01  4.7348443610824E-01
92  9.1000000000000E-01  8.1453241168296E-01  4.9682121561106E-01
93  9.2000000000000E-01  7.8855893784667E-01  5.2083331591783E-01
94  9.3000000000000E-01  7.6230761054602E-01  5.4556412598774E-01
95  9.4000000000000E-01  7.3580597803061E-01  5.7105315470589E-01
96  9.5000000000000E-01  7.0908153313563E-01  5.9733517370340E-01
97  9.6000000000000E-01  6.8216176456770E-01  6.2443937392705E-01
98  9.7000000000000E-01  6.5507421011460E-01  6.5238854403951E-01
99  9.8000000000000E-01  6.2784651088655E-01  6.8119827860751E-01
100  9.9000000000000E-01  6.0050646571556E-01  7.1087622384787E-01
101  1.0000000000000E+00  5.7308208486480E-01  7.4142136845351E-01
102  1.0100000000000E+00  5.4560164223391E-01  7.7282338671885E-01
103  1.0200000000000E+00  5.1809372528449E-01  8.0506204083150E-01
104  1.0300000000000E+00  4.9058728195393E-01  8.3810664880255E-01
105  1.0400000000000E+00  4.6311166387125E-01  8.7191562407670E-01
106  1.0500000000000E+00  4.3569666523684E-01  9.0643609240346E-01
107  1.0600000000000E+00  4.0837255677506E-01  9.4160359106849E-01
108  1.0700000000000E+00  3.8117011421492E-01  9.7734185508842E-01
109  1.0800000000000E+00  3.5412064079680E-01  1.0135626944675E+00
110  1.0900000000000E+00  3.2725598334193E-01  1.0501659661096E+00
111  1.1000000000000E+00  3.0060854145426E-01  1.0870396434789E+00
112  1.1100000000000E+00  2.7421126945087E-01  1.1240599866131E+00
113  1.1200000000000E+00  2.4809767063570E-01  1.1610918146178E+00
114  1.1300000000000E+00  2.2230178354231E-01  1.1979888823160E+00
115  1.1400000000000E+00  1.9685815977332E-01  1.2345943622908E+00
116  1.1500000000000E+00  1.7180183305760E-01  1.2707414331476E+00
117  1.1600000000000E+00  1.4716827913117E-01  1.3062539744327E+00
118  1.1700000000000E+00  1.2299336602498E-01  1.3409473682728E+00
119  1.1800000000000E+00  9.9313294312573E-02  1.3746294074475E+00
120  1.1900000000000E+00  7.6164526835073E-02  1.4071013092669E+00
121  1.2000000000000E+00  5.3583707381353E-02  1.4381588342819E+00
122  1.2100000000000E+00  3.1607567759871E-02  1.4675935085214E+00
123  1.2200000000000E+00  1.0272822657874E-02  1.4951939475815E+00
124  1.2300000000000E+00 -1.0383948353051E-02  1.5207472805144E+00
125  1.2400000000000E+00 -3.0326432336031E-02  1.5440406710261E+00
126  1.2500000000000E+00 -4.9518728722082E-02  1.5648629330049E+00
127  1.2600000000000E+00 -6.7925509950501E-02  1.5830062368329E+00
128  1.2700000000000E+00 -8.5512197692821E-02  1.5982679022602E+00
129  1.2800000000000E+00 -1.0224515529504E-01  1.6104522728296E+00
130  1.2900000000000E+00 -1.1809189700097E-01  1.6193726659055E+00
131  1.3000000000000E+00 -1.3302131441047E-01  1.6248533912452E+00
132  1.3100000000000E+00 -1.4700392047545E-01  1.6267318297411E+00
133  1.3200000000000E+00 -1.6001211113672E-01  1.6248605624300E+00
134  1.3300000000000E+00 -1.7202044444826E-01  1.6191095380612E+00
135  1.3400000000000E+00 -1.8300593671695E-01  1.6093682654308E+00
136  1.3500000000000E+00 -1.9294837479611E-01  1.5955480142781E+00
137  1.3600000000000E+00 -2.0183064320619E-01  1.5775840057787E+00
138  1.3700000000000E+00 -2.0963906420101E-01  1.5554375704957E+00
139  1.3800000000000E+00 -2.1636374825401E-01  1.5290982480758E+00
140  1.3900000000000E+00 -2.2199895168919E-01  1.4985857989058E+00
141  1.4000000000000E+00 -2.2654343732817E-01  1.4639520934158E+00
142  1.4100000000000E+00 -2.3000083304276E-01  1.4252828395777E+00
143  1.4200000000000E+00 -2.3237998200275E-01  1.3826991034891E+00
144  1.4300000000000E+00 -2.3369527716836E-01  1.3363585716143E+00
145  1.4400000000000E+00 -2.3396697118770E-01  1.2864564962601E+00
146  1.4500000000000E+00 -2.3322145132908E-01  1.2332262582181E+00
147  1.4600000000000E+00 -2.3149146736211E-01  1.1769394719988E+00
148  1.4700000000000E+00 -2.2881629843134E-01  1.1179055498713E+00
149  1.4800000000000E+00 -2.2524184290100E-01  1.0564706307966E+00
150  1.4900000000000E+00 -2.2082061289230E-01  9.9301576933751E-01
151  1.5000000000000E+00 -2.1561161277077E-01  9.2795426764459E-01
152  1.5100000000000E+00 -2.0968007816194E-01  8.6172802063784E-01
153  1.5200000000000E+00 -2.0309704916898E-01  7.9480273046145E-01
154  1.5300000000000E+00 -1.9593874830740E-01  7.2766183104992E-01
155  1.5400000000000E+00 -1.8828573027672E-01  6.6079894729059E-01
156  1.5500000000000E+00 -1.8022176701581E-01  5.9470869559027E-01
157  1.5600000000000E+00 -1.7183242753716E-01  5.2987561365847E-01
158  1.5700000000000E+00 -1.6320330778923E-01  4.6676098691145E-01
159  1.5800000000000E+00 -1.5441786065714E-01  4.0578731194040E-01
160  1.5900000000000E+00 -1.4555477333312E-01  3.4732013251431E-01
161  1.6000000000000E+00 -1.3668484418180E-01  2.9164703863490E-01
162  1.6100000000000E+00 -1.2786769137285E-01  2.3895698376503E-01
163  1.6200000000000E+00 -1.1915399582312E-01  1.8936849596736E-01
164  1.6300000000000E+00 -1.1059031465024E-01  1.4297594955801E-01
165  1.6400000000000E+00 -1.0221952100534E-01  9.9854558342381E-02
166  1.6500000000000E+00 -9.4080634584806E-02  6.0059742828234E-02
167  1.6600000000000E+00 -8.6208693780333E-02  2.3626747100698E-02
168  1.6700000000000E+00 -7.8634658682718E-02 -9.4295952369774E-03
169  1.6800000000000E+00 -7.1385347191579E-02 -3.9114929596553E-02
170  1.6900000000000E+00 -6.4483404650412E-02 -6.5455282318330E-02
171  1.7000000000000E+00 -5.7947307265992E-02 -8.8496795154302E-02
172  1.7100000000000E+00 -5.1791399240725E-02 -1.0830529325187E-01
173  1.7200000000000E+00 -4.6025963275866E-02 -1.2496568883409E-01
174  1.7300000000000E+00 -4.0657323779314E-02 -1.3858122445683E-01
175  1.7400000000000E+00 -3.5687981799093E-02 -1.4927256131233E-01
176  1.7500000000000E+00 -3.1116780453694E-02 -1.5717671918846E-01
177  1.7600000000000E+00 -2.6939099314692E-02 -1.6244587635226E-01
178  1.7700000000000E+00 -2.3147075923438E-02 -1.6524603898133E-01
179  1.7800000000000E+00 -1.9729852410950E-02 -1.6575559072881E-01
180  1.7900000000000E+00 -1.6673844908875E-02 -1.6416373449580E-01
181  1.8000000000000E+00 -1.3963033258420E-02 -1.6066883929738E-01
182  1.8100000000000E+00 -1.1579268308942E-02 -1.5547670620765E-01
183  1.8200000000000E+00 -9.5025939492782E-03 -1.4879876805216E-01
184  1.8300000000000E+00 -7.7115808714129E-03 -1.4085023821451E-01
185  1.8400000000000E+00 -6.1836689343031E-03 -1.3184822458769E-01
186  1.8500000000000E+00 -4.8955149350036E-03 -1.2200982493574E-01
187  1.8600000000000E+00 -3.8233425350292E-03 -1.1155022020879E-01
188  1.8700000000000E+00 -2.9432909447652E-03 -1.0068078290654E-01
189  1.8800000000000E+00 -2.2317591755259E-03 -8.9607216770399E-02
190  1.8900000000000E+00 -1.6657499834548E-03 -7.8527720038901E-02
191  1.9000000000000E+00 -1.2231612670432E-03 -6.7631347059017E-02
192  1.9100000000000E+00 -8.8331857885384E-04 -5.7095627875236E-02
193  1.9200000000000E+00 -6.2895998671017E-04 -4.7079243875370E-02
194  1.9300000000000E+00 -4.4350467252265E-04 -3.7730525449228E-02
195  1.9400000000000E+00 -3.1017297509643E-04 -2.9190048068493E-02
196  1.9500000000000E+00 -2.1488501594057E-04 -2.1580674809569E-02
197  1.9600000000000E+00 -1.4612506162319E-04 -1.5007547645091E-02
198  1.9700000000000E+00 -9.5172304572477E-05 -9.5569603493820E-03
199  1.9800000000000E+00 -5.6284840388921E-05 -5.2976064086129E-03
200  1.9900000000000E+00 -2.6447820572662E-05 -2.2582956954887E-03
201  2.0000000000000E+00 -7.0431132512929E-06 -5.2884738109159E-04
202  2.0100000000000E+00  2.8333244038153E-07  1.9350297620384E-05
203  2.0200000000000E+00  1.2087197008281E-07  7.7641717392901E-06
204  2.03 -0. -0.
205  2.04  0.  0.
206  2.05 -0. -0.
207  2.06  0.  0.
208  2.07  0.  0.
209  2.08  0.  0.
210  2.09  0.  0.
211  2.10  0.  0.
212  2.11  0.  0.
213  2.12  0.  0.
214  2.13  0.  0.
215  2.14  0.  0.
216  2.15  0.  0.
217  2.16  0.  0.
218  2.17  0.  0.
219  2.18  0.  0.
220  2.19  0.  0.
221  2.20  0.  0.
222  2.21  0.  0.
223  2.22  0.  0.
224  2.23  0.  0.
225  2.24  0.  0.
226  2.25  0.  0.
227  2.26  0.  0.
228  2.27  0.  0.
229  2.28  0.  0.
230  2.29  0.  0.
231  2.30  0.  0.
232  2.31  0.  0.
233  2.32  0.  0.
234  2.33  0.  0.
235  2.34  0.  0.
236  2.35  0.  0.
237  2.36  0.  0.
238  2.37  0.  0.
239  2.38  0.  0.
240  2.39  0.  0.
241  2.40  0.  0.
242  2.41  0.  0.
243  2.42  0.  0.
244  2.43  0.  0.
245  2.44  0.  0.
246  2.45  0.  0.
247  2.46  0.  0.
248  2.47  0.  0.
249  2.48  0.  0.
250  2.49  0.  0.
251  2.50  0.  0.
252  2.51  0.  0.
253  2.52  0.  0.
254  2.53  0.  0.
255  2.54  0.  0.
256  2.55  0.  0.
257  2.56  0.  0.
258  2.57  0.  0.
259  2.58  0.  0.
260  2.59  0.  0.
261  2.60  0.  0.
262  2.61  0.  0.
263  2.62  0.  0.
264  2.63  0.  0.
265  2.64  0.  0.
266  2.65  0.  0.
267  2.66  0.  0.
268  2.67  0.  0.
269  2.68  0.  0.
270  2.69  0.  0.
271  2.70  0.  0.
272  2.71  0.  0.
273  2.72  0.  0.
274  2.73  0.  0.
275  2.74  0.  0.
276  2.75  0.  0.
277  2.76  0.  0.
278  2.77  0.  0.
279  2.78  0.  0.
280  2.79  0.  0.
281  2.80  0.  0.
282  2.81  0.  0.
283  2.82  0.  0.
284  2.83  0.  0.
285  2.84  0.  0.
286  2.85  0.  0.
287  2.86  0.  0.
288  2.87  0.  0.
289  2.88  0.  0.
290  2.89  0.  0.
291  2.90  0.  0.
292  2.91  0.  0.
293  2.92  0.  0.
294  2.93  0.  0.
295  2.94  0.  0.
296  2.95  0.  0.
297  2.96  0.  0.
298  2.97  0.  0.
299  2.98  0.  0.
300  2.99  0.  0.
301  3.00  0.  0.
302  3.01  0.  0.
303  3.02  0.  0.
304  3.03  0.  0.
305  3.04  0.  0.
306  3.05  0.  0.
307  3.06  0.  0.
308  3.07  0.  0.
309  3.08  0.  0.
310  3.09  0.  0.
311  3.10  0.  0.
312  3.11  0.  0.
313  3.12  0.  0.
314  3.13  0.  0.
315  3.14  0.  0.
316  3.15  0.  0.
317  3.16  0.  0.
318  3.17  0.  0.
319  3.18  0.  0.
320  3.19  0.  0.
321  3.20  0.  0.
322  3.21  0.  0.
323  3.22  0.  0.
324  3.23  0.  0.
325  3.24  0.  0.
326  3.25  0.  0.
327  3.26  0.  0.
328  3.27  0.  0.
329  3.28  0.  0.
330  3.29  0.  0.
331  3.30  0.  0.
332  3.31  0.  0.
333  3.32  0.  0.
334  3.33  0.  0.
335  3.34  0.  0.
336  3.35  0.  0.
337  3.36  0.  0.
338  3.37  0.  0.
339  3.38  0.  0.
340  3.39  0.  0.
341  3.40  0.  0.
342  3.41  0.  0.
343  3.42  0.  0.
344  3.43  0.  0.
345  3.44  0.  0.
346  3.45  0.  0.
347  3.46  0.  0.
348  3.47  0.  0.
349  3.48  0.  0.
350  3.49  0.  0.
351  3.50  0.  0.
352  3.51  0.  0.
353  3.52  0.  0.
354  3.53  0.  0.
355  3.54  0.  0.
356  3.55  0.  0.
357  3.56  0.  0.
358  3.57  0.  0.
359  3.58  0.  0.
360  3.59  0.  0.
361  3.60  0.  0.
362  3.61  0.  0.
363  3.62  0.  0.
364  3.63  0.  0.
365  3.64  0.  0.
366  3.65  0.  0.
367  3.66  0.  0.
368  3.67  0.  0.
369  3.68  0.  0.
370  3.69  0.  0.
371  3.70  0.  0.
372  3.71  0.  0.
373  3.72  0.  0.
374  3.73  0.  0.
375  3.74  0.  0.
376  3.75  0.  0.
377  3.76  0.  0.
378  3.77  0.  0.
379  3.78  0.  0.
380  3.79  0.  0.
381  3.80  0.  0.
382  3.81  0.  0.
383  3.82  0.  0.
384  3.83  0.  0.
385  3.84  0.  0.
386  3.85  0.  0.
387  3.86  0.  0.
388  3.87  0.  0.
389  3.88  0.  0.
390  3.89  0.  0.
391  3.90  0.  0.
392  3.91  0.  0.
393  3.92  0.  0.
394  3.93  0.  0.
395  3.94  0.  0.
396  3.95  0.  0.
397  3.96  0.  0.
398  3.97  0.  0.
399  3.98  0.  0.
400  3.99  0.  0.
401  4.00  0.  0.
402  4.01  0.  0.
403  4.02  0.  0.
404  4.03  0.  0.
405  4.04  0.  0.
406  4.05  0.  0.
407  4.06  0.  0.
408  4.07  0.  0.
409  4.08  0.  0.
410  4.09  0.  0.
411  4.10  0.  0.
412  4.11  0.  0.
413  4.12  0.  0.
414  4.13  0.  0.
415  4.14  0.  0.
416  4.15  0.  0.
417  4.16  0.  0.
418  4.17  0.  0.
419  4.18  0.  0.
420  4.19  0.  0.
421  4.20  0.  0.
422  4.21  0.  0.
423  4.22  0.  0.
424  4.23  0.  0.
425  4.24  0.  0.
426  4.25  0.  0.
427  4.26  0.  0.
428  4.27  0.  0.
429  4.28  0.  0.
430  4.29  0.  0.
431  4.30  0.  0.
432  4.31  0.  0.
433  4.32  0.  0.
434  4.33  0.  0.
435  4.34  0.  0.
436  4.35  0.  0.
437  4.36  0.  0.
438  4.37  0.  0.
439  4.38  0.  0.
440  4.39  0.  0.
441  4.40  0.  0.
442  4.41  0.  0.
443  4.42  0.  0.
444  4.43  0.  0.
445  4.44  0.  0.
446  4.45  0.  0.
447  4.46  0.  0.
448  4.47  0.  0.
449  4.48  0.  0.
450  4.49  0.  0.
451  4.50  0.  0.
452  4.51  0.  0.
453  4.52  0.  0.
454  4.53  0.  0.
455  4.54  0.  0.
456  4.55  0.  0.
457  4.56  0.  0.
458  4.57  0.  0.
459  4.58  0.  0.
460  4.59  0.  0.
461  4.60  0.  0.
462  4.61  0.  0.
463  4.62  0.  0.
464  4.63  0.  0.
465  4.64  0.  0.
466  4.65  0.  0.
467  4.66  0.  0.
468  4.67  0.  0.
469  4.68  0.  0.
470  4.69  0.  0.
471  4.70  0.  0.
472  4.71  0.  0.
473  4.72  0.  0.
474  4.73  0.  0.
475  4.74  0.  0.
476  4.75  0.  0.
477  4.76  0.  0.
478  4.77  0.  0.
479  4.78  0.  0.
480  4.79  0.  0.
481  4.80  0.  0.
482  4.81  0.  0.
483  4.82  0.  0.
484  4.83  0.  0.
485  4.84  0.  0.
486  4.85  0.  0.
487  4.86  0.  0.
488  4.87  0.  0.
489  4.88  0.  0.
490  4.89  0.  0.
491  4.90  0.  0.
492  4.91  0.  0.
493  4.92  0.  0.
494  4.93  0.  0.
495  4.94  0.  0.
496  4.95  0.  0.
497  4.96  0.  0.
498  4.97  0.  0.
499  4.98  0.  0.
500  4.99  0.  0.
501  5.00  0.  0.
502  5.01  0.  0.
503  5.02  0.  0.
504  5.03  0.  0.
505  5.04  0.  0.
506  5.05  0.  0.
507  5.06  0.  0.
508  5.07  0.  0.
509  5.08  0.  0.
510  5.09  0.  0.
511  5.10  0.  0.
512  5.11  0.  0.
513  5.12  0.  0.
514  5.13  0.  0.
515  5.14  0.  0.
516  5.15  0.  0.
517  5.16  0.  0.
518  5.17  0.  0.
519  5.18  0.  0.
520  5.19  0.  0.
521  5.20  0.  0.
522  5.21  0.  0.
523  5.22  0.  0.
524  5.23  0.  0.
525  5.24  0.  0.
526  5.25  0.  0.
527  5.26  0.  0.
528  5.27  0.  0.
529  5.28  0.  0.
530  5.29  0.  0.
531  5.30  0.  0.
532  5.31  0.  0.
533  5.32  0.  0.
534  5.33  0.  0.
535  5.34  0.  0.
536  5.35  0.  0.
537  5.36  0.  0.
538  5.37  0.  0.
539  5.38  0.  0.
540  5.39  0.  0.
541  5.40  0.  0.
542  5.41  0.  0.
543  5.42  0.  0.
544  5.43  0.  0.
545  5.44  0.  0.
546  5.45  0.  0.
547  5.46  0.  0.
548  5.47  0.  0.
549  5.48  0.  0.
550  5.49  0.  0.
551  5.50  0.  0.
552  5.51  0.  0.
553  5.52  0.  0.
554  5.53  0.  0.
555  5.54  0.  0.
556  5.55  0.  0.
557  5.56  0.  0.
558  5.57  0.  0.
559  5.58  0.  0.
560  5.59  0.  0.
561  5.60  0.  0.
562  5.61  0.  0.
563  5.62  0.  0.
564  5.63  0.  0.
565  5.64  0.  0.
566  5.65  0.  0.
567  5.66  0.  0.
568  5.67  0.  0.
569  5.68  0.  0.
570  5.69  0.  0.
571  5.70  0.  0.
572  5.71  0.  0.
573  5.72  0.  0.
574  5.73  0.  0.
575  5.74  0.  0.
576  5.75  0.  0.
577  5.76  0.  0.
578  5.77  0.  0.
579  5.78  0.  0.
580  5.79  0.  0.
581  5.80  0.  0.
582  5.81  0.  0.
583  5.82  0.  0.
584  5.83  0.  0.
585  5.84  0.  0.
586  5.85  0.  0.
587  5.86  0.  0.
588  5.87  0.  0.
589  5.88  0.  0.
590  5.89  0.  0.
591  5.90  0.  0.
592  5.91  0.  0.
593  5.92  0.  0.
594  5.93  0.  0.
595  5.94  0.  0.
596  5.95  0.  0.
597  5.96  0.  0.
598  5.97  0.  0.
599  5.98  0.  0.
600  5.99  0.  0.
1                         5.1525483231609E+00  1.8141469667890E+00
1  0.0000000000000E+00  2.0267585928990E-08 -3.0249605459387E-08
2  1.0000000000000E-02  1.1582164524944E-03 -5.9129788637833E-04
3  2.0000000000000E-02  4.6072248283571E-03 -2.3291464022884E-03
4  3.0000000000000E-02  1.0270678509128E-02 -5.1062654648394E-03
5  4.0000000000000E-02  1.8023242212051E-02 -8.7466881639805E-03
6  5.0000000000000E-02  2.7693413828748E-02 -1.3009948216332E-02
7  6.0000000000000E-02  3.9067392291603E-02 -1.7596818909475E-02
8  7.0000000000000E-02  5.1893910747189E-02 -2.2156483019668E-02
9  8.0000000000000E-02  6.5889934048526E-02 -2.6294982936349E-02
10  9.0000000000000E-02  8.0747101331763E-02 -2.9584773002215E-02
11  1.0000000000000E-01  9.6138778586110E-02 -3.1575172428686E-02
12  1.1000000000000E-01  1.1172757297927E-01 -3.1803497552816E-02
13  1.2000000000000E-01  1.2717315053285E-01 -2.9806637064745E-02
14  1.3000000000000E-01  1.4214019176332E-01 -2.5132823468318E-02
15  1.4000000000000E-01  1.5630631626227E-01 -1.7353348662090E-02
16  1.5000000000000E-01  1.6936980696676E-01 -6.0739712661800E-03
17  1.6000000000000E-01  1.8105696808350E-01  9.0542318051737E-03
18  1.7000000000000E-01  1.9112895722568E-01  2.8324807094511E-02
19  1.8000000000000E-01  1.9938794218115E-01  5.1966882435848E-02
20  1.9000000000000E-01  2.0568244567125E-01  8.0137344222358E-02
21  2.0000000000000E-01  2.0991175723645E-01  1.1291441381093E-01
22  2.1000000000000E-01  2.1202930969717E-01  1.5029277533969E-01
23  2.2000000000000E-01  2.1204493813231E-01  1.9218037655365E-01
24  2.3000000000000E-01  2.1002596159848E-01  2.3839699089450E-01
25  2.4000000000000E-01  2.0609705144513E-01  2.8867459376371E-01
26  2.5000000000000E-01  2.0043887460232E-01  3.4265956920642E-01
27  2.6000000000000E-01  1.9328552514717E-01  3.9991672601007E-01
28  2.7000000000000E-01  1.8492078229842E-01  4.5993506510323E-01
29  2.8000000000000E-01  1.7567325725321E-01  5.2213520391773E-01
30  2.9000000000000E-01  1.6591051447984E-01  5.8587832876488E-01
31  3.0000000000000E-01  1.5603227474873E-01  6.5047651397519E-01
32  3.1000000000000E-01  1.4646282688037E-01  7.1520421721677E-01
33  3.2000000000000E-01  1.3764279250933E-01  7.7931073464525E-01
34  3.3000000000000E-01  1.3002040274808E-01  8.4203337788475E-01
35  3.4000000000000E-01  1.2404245717323E-01  9.0261111775553E-01
36  3.5000000000000E-01  1.2014514379879E-01  9.6029842752468E-01
37  3.6000000000000E-01  1.1874490345740E-01  1.0143790515399E+00
38  3.7000000000000E-01  1.2022952315830E-01  1.0641794235945E+00
39  3.8000000000000E-01  1.2494964047893E-01  1.1090814633371E+00
40  3.9000000000000E-01  1.3321083489276E-01  1.1485344884543E+00
41  4.0000000000000E-01  1.4526647222999E-01  1.1820659950741E+00
42  4.1000000000000E-01  1.6131145537026E-01  1.2092910786261E+00
43  4.2000000000000E-01  1.8147701800435E-01  1.2299202918999E+00
44  4.3000000000000E-01  2.0582667916651E-01  1.2437657658323E+00
45  4.4000000000000E-01  2.3435345458045E-01  1.2507454510918E+00
46  4.5000000000000E-01  2.6697839708094E-01  1.2508853742211E+00
47  4.6000000000000E-01  3.0355051291716E-01  1.2443198402608E+00
48  4.7000000000000E-01  3.4384807409534E-01  1.2312895536939E+00
49  4.8000000000000E-01  3.8758131958875E-01  1.2121376704481E+00
50  4.9000000000000E-01  4.3439651075964E-01  1.1873038347817E+00
51  5.0000000000000E-01  4.8388127923841E-01  1.1573162953500E+00
52  5.1000000000000E-01  5.3557117932251E-01  1.1227822338068E+00
53  5.2000000000000E-01  5.8895733221287E-01  1.0843764761605E+00
54  5.3000000000000E-01  6.4349502659770E-01  1.0428287910234E+00
55  5.4000000000000E-01  6.9861311968562E-01  9.9891000918138E-01
56  5.5000000000000E-01  7.5372406520813E-01  9.5341722493052E-01
57  5.6000000000000E-01  8.0823438052463E-01  9.0715836082763E-01
58  5.7000000000000E-01  8.6155535408841E-01  8.6093639341035E-01
59  5.8000000000000E-01  9.1311378741604E-01  8.1553354769954E-01
60  5.9000000000000E-01  9.6236256252591E-01  7.7169577263191E-01
61  6.0000000000000E-01  1.0087908266768E+00  7.3011780783901E-01
62  6.1000000000000E-01  1.0519335911723E+00  6.9142914435365E-01
63  6.2000000000000E-01  1.0913805499500E+00  6.5618116797210E-01
64  6.3000000000000E-01  1.1267839365133E+00  6.2483575433097E-01
65  6.4000000000000E-01  1.1578652542873E+00  5.9775555958925E-01
66  6.5000000000000E-01  1.1844207354007E+00  5.7519622036465E-01
67  6.6000000000000E-01  1.2063254058711E+00  5.5730064179049E-01
68  6.7000000000000E-01  1.2235356607887E+00  5.4409551385673E-01
69  6.8000000000000E-01  1.2360902808819E+00  5.3549015428346E-01
70  6.9000000000000E-01  1.2441098512993E+00  5.3127773182603E-01
71  7.0000000000000E-01  1.2477945740055E+00  5.3113887795311E-01
72  7.1000000000000E-01  1.2474204962762E+00  5.3464764815505E-01
73  7.2000000000000E-01  1.2433342088084E+00  5.4127974761404E-01
74  7.3000000000000E-01  1.2359460973248E+00  5.5042289051245E-01
75  7.4000000000000E-01  1.2257222606560E+00  5.6138911875836E-01
76  7.5000000000000E-01  1.2131752355627E+00  5.7342886523082E-01
77  7.6000000000000E-01  1.1988536934491E+00  5.8574650961605E-01
78  7.7000000000000E-01  1.1833312961322E+00  5.9751714227318E-01
79  7.8000000000000E-01  1.1671949164985E+00  6.0790422401604E-01
80  7.9000000000000E-01  1.1510324448089E+00  6.1607780782111E-01
81  8.0000000000000E-01  1.1354204122757E+00  6.2123297275378E-01
82  8.1000000000000E-01  1.1209116700807E+00  6.2260811122566E-01
83  8.2000000000000E-01  1.1080233640480E+00  6.1950270830419E-01
84  8.3000000000000E-01  1.0972254426542E+00  6.1129425632108E-01
85  8.4000000000000E-01  1.0889299289370E+00  5.9745395945995E-01
86  8.5000000000000E-01  1.0834811752462E+00  5.7756090120805E-01
87  8.6000000000000E-01  1.0811473038375E+00  5.5131437226225E-01
88  8.7000000000000E-01  1.0821130162997E+00  5.1854408728662E-01
89  8.8000000000000E-01  1.0864739310676E+00  4.7921805531036E-01
90  8.9000000000000E-01  1.0942325812192E+00  4.3344790989773E-01
91  9.0000000000000E-01  1.1052961748692E+00  3.8149155078584E-01
92  9.1000000000000E-01  1.1194761882926E+00  3.2375299764495E-01
93  9.2000000000000E-01  1.1364898280227E+00  2.6077940808567E-01
94  9.3000000000000E-01  1.1559633632103E+00  1.9325526505531E-01
95  9.4000000000000E-01  1.1774372941381E+00  1.2199379235156E-01
96  9.5000000000000E-01  1.2003732876472E+00  4.7925710119662E-02
97  9.6000000000000E-01  1.2241627759930E+00 -2.7914506114130E-02
98  9.7000000000000E-01  1.2481370829957E+00 -1.0440465009557E-01
99  9.8000000000000E-01  1.2715789108819E+00 -1.8035283456378E-01
100  9.9000000000000E-01  1.2937349935584E+00 -2.5451726590266E-01
101  1.0000000000000E+00  1.3138296977420E+00 -3.2562740717932E-01
102  1.0100000000000E+00  1.3310793329005E+00 -3.9240616249957E-01
103  1.0200000000000E+00  1.3447069147259E+00 -4.5359269154730E-01
104  1.0300000000000E+00  1.3539571152478E+00 -5.0796544614564E-01
105  1.0400000000000E+00  1.3581111259256E+00 -5.5436501101590E-01
106  1.0500000000000E+00  1.3565011583110E+00 -5.9171632888259E-01
107  1.0600000000000E+00  1.3485243102383E+00 -6.1904989580057E-01
108  1.0700000000000E+00  1.3336555339096E+00 -6.3552152596395E-01
109  1.0800000000000E+00  1.3114594556604E+00 -6.4043030622082E-01
110  1.0900000000000E+00  1.2816008152924E+00 -6.3323438857371E-01
111  1.1000000000000E+00  1.2438533154641E+00 -6.1356430381486E-01
112  1.1100000000000E+00  1.1981066982496E+00 -5.8123352037077E-01
113  1.1200000000000E+00  1.1443718961936E+00 -5.3624601878884E-01
114  1.1300000000000E+00  1.0827841384893E+00 -4.7880070330004E-01
115  1.1400000000000E+00  1.0136039285984E+00 -4.0929252647697E-01
116  1.1500000000000E+00  9.3721584723343E-01 -3.2831026046175E-01
117  1.1600000000000E+00  8.5412517324890E-01 -2.3663090719317E-01
118  1.1700000000000E+00  7.6495235413995E-01 -1.3521079979458E-01
119  1.1800000000000E+00  6.7042539665417E-01 -2.5173506433466E-02
120  1.1900000000000E+00  5.7137028582333E-01  9.2205294435750E-02
121  1.2000000000000E+00  4.6869957692861E-01  2.1551574339544E-01
122  1.2100000000000E+00  3.6339933855536E-01  3.4323425868749E-01
123  1.2200000000000E+00  2.5651465583079E-01  4.7374620178315E-01
124  1.2300000000000E+00  1.4913393002886E-01  6.0537038632582E-01
125  1.2400000000000E+00  4.2372233973818E-02  7.3638503150420E-01
126  1.2500000000000E+00 -6.2645998675946E-02  8.6505473253426E-01
127  1.2600000000000E+00 -1.6480465839667E-01  9.8965799994571E-01
128  1.2700000000000E+00 -2.6301371839278E-01  1.1085149060152E+00
129  1.2800000000000E+00 -3.5622676281600E-01  1.2200143715160E+00
130  1.2900000000000E+00 -4.4345798249439E-01  1.3226406287545E+00
131  1.3000000000000E+00 -5.2379834335737E-01  1.4149984078767E+00
132  1.3100000000000E+00 -5.9643064524123E-01  1.4958364123200E+00
133  1.3200000000000E+00 -6.6064320616905E-01  1.5640686756137E+00
134  1.3300000000000E+00 -7.1584192947290E-01  1.6187934254237E+00