Tm    ONCVPSP-4.0.1  r_core=   2.00859   1.60017   1.90331   1.40285
69.0000     23.0000      250626    zatom,zion,pspd
8      11   3     4   600     0    pspcod,pspxc,lmax,lloc,mmax,r2well
5.99000000  8.50000000  0.00000000    rchrg fchrg qchrg
2     2     2     2     0    nproj
1     1           extension_switch
0                         6.9727893787751E+00  9.9699918419816E-01
1  0.0000000000000E+00  7.4160233509701E-11 -2.0848175963373E-10
2  1.0000000000000E-02  4.4834714206513E-02 -2.7783891754088E-03
3  2.0000000000000E-02  8.9636176303420E-02 -5.5834148796832E-03
4  3.0000000000000E-02  1.3437099374192E-01 -8.4412080606859E-03
5  4.0000000000000E-02  1.7900549506557E-01 -1.1376893947403E-02
6  5.0000000000000E-02  2.2350559536455E-01 -1.4414102745017E-02
7  6.0000000000000E-02  2.6783666756653E-01 -1.7574496446627E-02
8  7.0000000000000E-02  3.1196342142238E-01 -2.0877316887282E-02
9  8.0000000000000E-02  3.5584979197027E-01 -2.4338959957531E-02
10  9.0000000000000E-02  3.9945883917074E-01 -2.7972580636620E-02
11  1.0000000000000E-01  4.4275266029671E-01 -3.1787733202080E-02
12  1.1000000000000E-01  4.8569231653936E-01 -3.5790050625534E-02
13  1.2000000000000E-01  5.2823777515200E-01 -3.9980966777233E-02
14  1.3000000000000E-01  5.7034786830284E-01 -4.4357484637486E-02
15  1.4000000000000E-01  6.1198026964376E-01 -4.8911993256001E-02
16  1.5000000000000E-01  6.5309148942788E-01 -5.3632135713775E-02
17  1.6000000000000E-01  6.9363688882545E-01 -5.8500729831786E-02
18  1.7000000000000E-01  7.3357071389677E-01 -6.3495742840474E-02
19  1.8000000000000E-01  7.7284614948391E-01 -6.8590320678958E-02
20  1.9000000000000E-01  8.1141539308293E-01 -7.3752872038473E-02
21  2.0000000000000E-01  8.4922974855461E-01 -7.8947206705614E-02
22  2.1000000000000E-01  8.8623973932926E-01 -8.4132727202809E-02
23  2.2000000000000E-01  9.2239524055858E-01 -8.9264672172165E-02
24  2.3000000000000E-01  9.5764562946972E-01 -9.4294409408570E-02
25  2.4000000000000E-01  9.9193995298288E-01 -9.9169775925453E-02
26  2.5000000000000E-01  1.0252271114677E+00 -1.0383546193566E-01
27  2.6000000000000E-01  1.0574560573365E+00 -1.0823343515694E-01
28  2.7000000000000E-01  1.0885760070040E+00 -1.1230340141051E-01
29  2.8000000000000E-01  1.1185366645916E+00 -1.1598329707669E-01
30  2.9000000000000E-01  1.1472884556080E+00 -1.1920980860917E-01
31  3.0000000000000E-01  1.1747827687171E+00 -1.2191891399138E-01
32  3.1000000000000E-01  1.2009722035921E+00 -1.2404644074983E-01
33  3.2000000000000E-01  1.2258108227624E+00 -1.2552863492252E-01
34  3.3000000000000E-01  1.2492544052886E+00 -1.2630273521882E-01
35  3.4000000000000E-01  1.2712607000464E+00 -1.2630754650253E-01
36  3.5000000000000E-01  1.2917896763675E+00 -1.2548400668415E-01
37  3.6000000000000E-01  1.3108037697744E+00 -1.2377574112319E-01
38  3.7000000000000E-01  1.3282681205528E+00 -1.2112959871648E-01
39  3.8000000000000E-01  1.3441508029393E+00 -1.1749616398484E-01
40  3.9000000000000E-01  1.3584230427526E+00 -1.1283023966736E-01
41  4.0000000000000E-01  1.3710594213685E+00 -1.0709129458843E-01
42  4.1000000000000E-01  1.3820380640371E+00 -1.0024387187624E-01
43  4.2000000000000E-01  1.3913408106507E+00 -9.2257952980368E-02
44  4.3000000000000E-01  1.3989533672075E+00 -8.3109273356957E-02
45  4.4000000000000E-01  1.4048654363685E+00 -7.2779586160089E-02
46  4.5000000000000E-01  1.4090708256714E+00 -6.1256870792279E-02
47  4.6000000000000E-01  1.4115675321547E+00 -4.8535483721831E-02
48  4.7000000000000E-01  1.4123578023402E+00 -3.4616249564512E-02
49  4.8000000000000E-01  1.4114481667370E+00 -1.9506491046181E-02
50  4.9000000000000E-01  1.4088494482504E+00 -3.2199971059370E-03
51  5.0000000000000E-01  1.4045767441116E+00  1.4223070940844E-02
52  5.1000000000000E-01  1.3986493811797E+00  3.2796334589073E-02
53  5.2000000000000E-01  1.3910908447116E+00  5.2467413415446E-02
54  5.3000000000000E-01  1.3819286809362E+00  7.3198198498470E-02
55  5.4000000000000E-01  1.3711943740167E+00  9.4945181389709E-02
56  5.5000000000000E-01  1.3589231982211E+00  1.1765983539513E-01
57  5.6000000000000E-01  1.3451540463612E+00  1.4128904530638E-01
58  5.7000000000000E-01  1.3299292357854E+00  1.6577558113401E-01
59  5.8000000000000E-01  1.3132942934317E+00  1.9105861084594E-01
60  5.9000000000000E-01  1.2952977216538E+00  2.1707424660916E-01
61  6.0000000000000E-01  1.2759907467241E+00  2.4375611858049E-01
62  6.1000000000000E-01  1.2554270520978E+00  2.7103596989490E-01
63  6.2000000000000E-01  1.2336624986780E+00  2.9884426616615E-01
64  6.3000000000000E-01  1.2107548344612E+00  3.2711081254712E-01
65  6.4000000000000E-01  1.1867633960618E+00  3.5576537120119E-01
66  6.5000000000000E-01  1.1617488047075E+00  3.8473827191420E-01
67  6.6000000000000E-01  1.1357726593681E+00  4.1396100853285E-01
68  6.7000000000000E-01  1.1088972297283E+00  4.4336681395030E-01
69  6.8000000000000E-01  1.0811851517329E+00  4.7289120647625E-01
70  6.9000000000000E-01  1.0526991284277E+00  5.0247250062539E-01
71  7.0000000000000E-01  1.0235016387897E+00  5.3205227563683E-01
72  7.1000000000000E-01  9.9365465717548E-01  5.6157579539395E-01
73  7.2000000000000E-01  9.6321938593999E-01  5.9099237384967E-01
74  7.3000000000000E-01  9.3225600365920E-01  6.2025568057171E-01
75  7.4000000000000E-01  9.0082343126114E-01  6.4932398160314E-01
76  7.5000000000000E-01  8.6897911820660E-01  6.7816031148107E-01
77  7.6000000000000E-01  8.3677885068021E-01  7.0673257296484E-01
78  7.7000000000000E-01  8.0427658354884E-01  7.3501356179013E-01
79  7.8000000000000E-01  7.7152429762088E-01  7.6298091457855E-01
80  7.9000000000000E-01  7.3857188349888E-01  7.9061697888877E-01
81  8.0000000000000E-01  7.0546705306051E-01  8.1790860528606E-01
82  8.1000000000000E-01  6.7225527933186E-01  8.4484686222472E-01
83  8.2000000000000E-01  6.3897976523343E-01  8.7142667547479E-01
84  8.3000000000000E-01  6.0568144138682E-01  8.9764639477151E-01
85  8.4000000000000E-01  5.7239899286970E-01  9.2350729131470E-01
86  8.5000000000000E-01  5.3916891450191E-01  9.4901299068738E-01
87  8.6000000000000E-01  5.0602559393760E-01  9.7416884668963E-01
88  8.7000000000000E-01  4.7300142153071E-01  9.9898126248614E-01
89  8.8000000000000E-01  4.4012692563504E-01  1.0234569663360E+00
90  8.9000000000000E-01  4.0743093169919E-01  1.0476022500024E+00
91  9.0000000000000E-01  3.7494074322130E-01  1.0714221787214E+00
92  9.1000000000000E-01  3.4268234234308E-01  1.0949197823323E+00
93  9.2000000000000E-01  3.1068060758727E-01  1.1180952378334E+00
94  9.3000000000000E-01  2.7895954598077E-01  1.1409450542169E+00
95  9.4000000000000E-01  2.4754253655824E-01  1.1634612709497E+00
96  9.5000000000000E-01  2.1645258201109E-01  1.1856306818939E+00
97  9.6000000000000E-01  1.8571256503474E-01  1.2074340968022E+00
98  9.7000000000000E-01  1.5534550573647E-01  1.2288456527657E+00
99  9.8000000000000E-01  1.2537481629740E-01  1.2498321881311E+00
100  9.9000000000000E-01  9.5824548938204E-02  1.2703526914426E+00
101  1.0000000000000E+00  6.6719633120142E-02  1.2903578378835E+00
102  1.0100000000000E+00  3.8086097823759E-02  1.3097896254941E+00
103  1.0200000000000E+00  9.9512746887629E-03  1.3285811231248E+00
104  1.0300000000000E+00 -1.7656022227037E-02  1.3466563416248E+00
105  1.0400000000000E+00 -4.4705344301880E-02  1.3639302391803E+00
106  1.0500000000000E+00 -7.1164488000466E-02  1.3803088709736E+00
107  1.0600000000000E+00 -9.6999410412867E-02  1.3956896924436E+00
108  1.0700000000000E+00 -1.2217418463746E-01  1.4099620243684E+00
109  1.0800000000000E+00 -1.4665099877613E-01  1.4230076867544E+00
110  1.0900000000000E+00 -1.7039020206830E-01  1.4347018070945E+00
111  1.1000000000000E+00 -1.9335040138808E-01  1.4449138069283E+00
112  1.1100000000000E+00 -2.1548861096026E-01  1.4535085687895E+00
113  1.1200000000000E+00 -2.3676045770984E-01  1.4603477835455E+00
114  1.1300000000000E+00 -2.5712044413750E-01  1.4652914757861E+00
115  1.1400000000000E+00 -2.7652227000467E-01  1.4681997023066E+00
116  1.1500000000000E+00 -2.9491921340280E-01  1.4689344157959E+00
117  1.1600000000000E+00 -3.1226457096963E-01  1.4673614825978E+00
118  1.1700000000000E+00 -3.2851215608157E-01  1.4633528397893E+00
119  1.1800000000000E+00 -3.4361685279276E-01  1.4567887728234E+00
120  1.1900000000000E+00 -3.5753522209073E-01  1.4475602905570E+00
121  1.2000000000000E+00 -3.7022615568201E-01  1.4355715695835E+00
122  1.2100000000000E+00 -3.8165157100497E-01  1.4207424344281E+00
123  1.2200000000000E+00 -3.9177713945640E-01  1.4030108342019E+00
124  1.2300000000000E+00 -4.0057303792782E-01  1.3823352698384E+00
125  1.2400000000000E+00 -4.0801471162968E-01  1.3586971188735E+00
126  1.2500000000000E+00 -4.1408363383969E-01  1.3321027969146E+00
127  1.2600000000000E+00 -4.1876804563548E-01  1.3025856864415E+00
128  1.2700000000000E+00 -4.2206365580827E-01  1.2702077542206E+00
129  1.2800000000000E+00 -4.2397427802848E-01  1.2350607684938E+00
130  1.2900000000000E+00 -4.2451237891056E-01  1.1972670160979E+00
131  1.3000000000000E+00 -4.2369950685730E-01  1.1569794076566E+00
132  1.3100000000000E+00 -4.2156656747714E-01  1.1143808460256E+00
133  1.3200000000000E+00 -4.1815390693222E-01  1.0696827191940E+00
134  1.3300000000000E+00 -4.1351115971855E-01  1.0231223636051E+00
135  1.3400000000000E+00 -4.0769681215950E-01  9.7495932756041E-01
136  1.3500000000000E+00 -4.0077742723115E-01  9.2547024675155E-01
137  1.3600000000000E+00 -3.9282647024030E-01  8.7494212505333E-01
138  1.3700000000000E+00 -3.8392266827908E-01  8.2366379331624E-01
139  1.3800000000000E+00 -3.7414782877499E-01  7.7191529410597E-01
140  1.3900000000000E+00 -3.6358403348345E-01  7.1995491052399E-01
141  1.4000000000000E+00 -3.5231016720715E-01  6.6800380537806E-01
142  1.4100000000000E+00 -3.4039761257541E-01  6.1622758125888E-01
143  1.4200000000000E+00 -3.2791092166008E-01  5.6474646226826E-01
144  1.4300000000000E+00 -3.1491440451109E-01  5.1367569084589E-01
145  1.4400000000000E+00 -3.0147369833419E-01  4.6313528735935E-01
146  1.4500000000000E+00 -2.8765541756744E-01  4.1324887737998E-01
147  1.4600000000000E+00 -2.7352685758577E-01  3.6414286401237E-01
148  1.4700000000000E+00 -2.5915567332917E-01  3.1594549536425E-01
149  1.4800000000000E+00 -2.4460954507167E-01  2.6878588982638E-01
150  1.4900000000000E+00 -2.2995583393636E-01  2.2279302689895E-01
151  1.5000000000000E+00 -2.1526123006908E-01  1.7809471263307E-01
152  1.5100000000000E+00 -2.0059139637656E-01  1.3481652852770E-01
153  1.5200000000000E+00 -1.8601061123635E-01  9.3080774951267E-02
154  1.5300000000000E+00 -1.7158141296186E-01  5.3005417119455E-02
155  1.5400000000000E+00 -1.5736424902523E-01  1.4703042638658E-02
156  1.5500000000000E+00 -1.4341713468528E-01 -2.1720152595801E-02
157  1.5600000000000E+00 -1.2979532204045E-01 -5.6165350436467E-02
158  1.5700000000000E+00 -1.1655098439677E-01 -8.8542050376805E-02
159  1.5800000000000E+00 -1.0373291816520E-01 -1.1876895769363E-01
160  1.5900000000000E+00 -9.1386265434151E-02 -1.4677480963557E-01
161  1.6000000000000E+00 -7.9552259962096E-02 -1.7249913110219E-01
162  1.6100000000000E+00 -6.8267999186711E-02 -1.9589291166352E-01
163  1.6200000000000E+00 -5.7566244623414E-02 -2.1691919648214E-01
164  1.6300000000000E+00 -4.7475252824533E-02 -2.3555358428736E-01
165  1.6400000000000E+00 -3.8018638785360E-02 -2.5178462647126E-01
166  1.6500000000000E+00 -2.9215273412213E-02 -2.6561412220943E-01
167  1.6600000000000E+00 -2.1079216391118E-02 -2.7705730534936E-01
168  1.6700000000000E+00 -1.3619685452975E-02 -2.8614291990975E-01
169  1.6800000000000E+00 -6.8410627360862E-03 -2.9291318192099E-01
170  1.6900000000000E+00 -7.4293858562331E-04 -2.9742362649083E-01
171  1.7000000000000E+00  4.6798071832555E-03 -2.9974283992642E-01
172  1.7100000000000E+00  9.4368868976292E-03 -2.9995207790598E-01
173  1.7200000000000E+00  1.3542450194405E-02 -2.9814477175297E-01
174  1.7300000000000E+00  1.7014893746917E-02 -2.9442592586079E-01
175  1.7400000000000E+00  1.9876636907064E-02 -2.8891141043465E-01
176  1.7500000000000E+00  2.2153864937184E-02 -2.8172715470311E-01
177  1.7600000000000E+00  2.3876241789721E-02 -2.7300824661838E-01
178  1.7700000000000E+00  2.5076595035712E-02 -2.6289794732151E-01
179  1.7800000000000E+00  2.5790573839851E-02 -2.5154662193120E-01
180  1.7900000000000E+00  2.6056286998117E-02 -2.3911061146128E-01
181  1.8000000000000E+00  2.5913917971232E-02 -2.2575103191964E-01
182  1.8100000000000E+00  2.5405325166069E-02 -2.1163252981608E-01
183  1.8200000000000E+00  2.4573628958000E-02 -1.9692199732831E-01
184  1.8300000000000E+00  2.3462788700062E-02 -1.8178725698054E-01
185  1.8400000000000E+00  2.2117174013622E-02 -1.6639572962898E-01
186  1.8500000000000E+00  2.0581133800814E-02 -1.5091309622928E-01
187  1.8600000000000E+00  1.8898566804481E-02 -1.3550196531009E-01
188  1.8700000000000E+00  1.7112497690297E-02 -1.2032055842353E-01
189  1.8800000000000E+00  1.5264661208074E-02 -1.0552142186594E-01
190  1.8900000000000E+00  1.3395096682307E-02 -9.1250172205029E-02
191  1.9000000000000E+00  1.1541785979824E-02 -7.7644367844434E-02
192  1.9100000000000E+00  9.7400862176774E-03 -6.4831822515157E-02
193  1.9200000000000E+00  8.0211008698997E-03 -5.2925864594240E-02
194  1.9300000000000E+00  6.4139221634012E-03 -4.2031551017771E-02
195  1.9400000000000E+00  4.9459129377565E-03 -3.2246470831398E-02
196  1.9500000000000E+00  3.6403869375081E-03 -2.3654210270546E-02
197  1.9600000000000E+00  2.5166860434493E-03 -1.6324482602230E-02
198  1.9700000000000E+00  1.5899571116188E-03 -1.0312445640275E-02
199  1.9800000000000E+00  8.7134003972742E-04 -5.6604513381980E-03
200  1.9900000000000E+00  3.6425654666356E-04 -2.3738182495631E-03
201  2.0000000000000E+00  8.1834253354776E-05 -5.3602949954627E-04
202  2.0100000000000E+00 -4.0935493616875E-06  2.6919492215047E-05
203  2.0200000000000E+00 -8.0236610926692E-07  5.2928282300499E-06
204  2.03  0. -0.
205  2.04 -0.  0.
206  2.05 -0. -0.
207  2.06  0.  0.
208  2.07  0.  0.
209  2.08  0.  0.
210  2.09  0.  0.
211  2.10  0.  0.
212  2.11  0.  0.
213  2.12  0.  0.
214  2.13  0.  0.
215  2.14  0.  0.
216  2.15  0.  0.
217  2.16  0.  0.
218  2.17  0.  0.
219  2.18  0.  0.
220  2.19  0.  0.
221  2.20  0.  0.
222  2.21  0.  0.
223  2.22  0.  0.
224  2.23  0.  0.
225  2.24  0.  0.
226  2.25  0.  0.
227  2.26  0.  0.
228  2.27  0.  0.
229  2.28  0.  0.
230  2.29  0.  0.
231  2.30  0.  0.
232  2.31  0.  0.
233  2.32  0.  0.
234  2.33  0.  0.
235  2.34  0.  0.
236  2.35  0.  0.
237  2.36  0.  0.
238  2.37  0.  0.
239  2.38  0.  0.
240  2.39  0.  0.
241  2.40  0.  0.
242  2.41  0.  0.
243  2.42  0.  0.
244  2.43  0.  0.
245  2.44  0.  0.
246  2.45  0.  0.
247  2.46  0.  0.
248  2.47  0.  0.
249  2.48  0.  0.
250  2.49  0.  0.
251  2.50  0.  0.
252  2.51  0.  0.
253  2.52  0.  0.
254  2.53  0.  0.
255  2.54  0.  0.
256  2.55  0.  0.
257  2.56  0.  0.
258  2.57  0.  0.
259  2.58  0.  0.
260  2.59  0.  0.
261  2.60  0.  0.
262  2.61  0.  0.
263  2.62  0.  0.
264  2.63  0.  0.
265  2.64  0.  0.
266  2.65  0.  0.
267  2.66  0.  0.
268  2.67  0.  0.
269  2.68  0.  0.
270  2.69  0.  0.
271  2.70  0.  0.
272  2.71  0.  0.
273  2.72  0.  0.
274  2.73  0.  0.
275  2.74  0.  0.
276  2.75  0.  0.
277  2.76  0.  0.
278  2.77  0.  0.
279  2.78  0.  0.
280  2.79  0.  0.
281  2.80  0.  0.
282  2.81  0.  0.
283  2.82  0.  0.
284  2.83  0.  0.
285  2.84  0.  0.
286  2.85  0.  0.
287  2.86  0.  0.
288  2.87  0.  0.
289  2.88  0.  0.
290  2.89  0.  0.
291  2.90  0.  0.
292  2.91  0.  0.
293  2.92  0.  0.
294  2.93  0.  0.
295  2.94  0.  0.
296  2.95  0.  0.
297  2.96  0.  0.
298  2.97  0.  0.
299  2.98  0.  0.
300  2.99  0.  0.
301  3.00  0.  0.
302  3.01  0.  0.
303  3.02  0.  0.
304  3.03  0.  0.
305  3.04  0.  0.
306  3.05  0.  0.
307  3.06  0.  0.
308  3.07  0.  0.
309  3.08  0.  0.
310  3.09  0.  0.
311  3.10  0.  0.
312  3.11  0.  0.
313  3.12  0.  0.
314  3.13  0.  0.
315  3.14  0.  0.
316  3.15  0.  0.
317  3.16  0.  0.
318  3.17  0.  0.
319  3.18  0.  0.
320  3.19  0.  0.
321  3.20  0.  0.
322  3.21  0.  0.
323  3.22  0.  0.
324  3.23  0.  0.
325  3.24  0.  0.
326  3.25  0.  0.
327  3.26  0.  0.
328  3.27  0.  0.
329  3.28  0.  0.
330  3.29  0.  0.
331  3.30  0.  0.
332  3.31  0.  0.
333  3.32  0.  0.
334  3.33  0.  0.
335  3.34  0.  0.
336  3.35  0.  0.
337  3.36  0.  0.
338  3.37  0.  0.
339  3.38  0.  0.
340  3.39  0.  0.
341  3.40  0.  0.
342  3.41  0.  0.
343  3.42  0.  0.
344  3.43  0.  0.
345  3.44  0.  0.
346  3.45  0.  0.
347  3.46  0.  0.
348  3.47  0.  0.
349  3.48  0.  0.
350  3.49  0.  0.
351  3.50  0.  0.
352  3.51  0.  0.
353  3.52  0.  0.
354  3.53  0.  0.
355  3.54  0.  0.
356  3.55  0.  0.
357  3.56  0.  0.
358  3.57  0.  0.
359  3.58  0.  0.
360  3.59  0.  0.
361  3.60  0.  0.
362  3.61  0.  0.
363  3.62  0.  0.
364  3.63  0.  0.
365  3.64  0.  0.
366  3.65  0.  0.
367  3.66  0.  0.
368  3.67  0.  0.
369  3.68  0.  0.
370  3.69  0.  0.
371  3.70  0.  0.
372  3.71  0.  0.
373  3.72  0.  0.
374  3.73  0.  0.
375  3.74  0.  0.
376  3.75  0.  0.
377  3.76  0.  0.
378  3.77  0.  0.
379  3.78  0.  0.
380  3.79  0.  0.
381  3.80  0.  0.
382  3.81  0.  0.
383  3.82  0.  0.
384  3.83  0.  0.
385  3.84  0.  0.
386  3.85  0.  0.
387  3.86  0.  0.
388  3.87  0.  0.
389  3.88  0.  0.
390  3.89  0.  0.
391  3.90  0.  0.
392  3.91  0.  0.
393  3.92  0.  0.
394  3.93  0.  0.
395  3.94  0.  0.
396  3.95  0.  0.
397  3.96  0.  0.
398  3.97  0.  0.
399  3.98  0.  0.
400  3.99  0.  0.
401  4.00  0.  0.
402  4.01  0.  0.
403  4.02  0.  0.
404  4.03  0.  0.
405  4.04  0.  0.
406  4.05  0.  0.
407  4.06  0.  0.
408  4.07  0.  0.
409  4.08  0.  0.
410  4.09  0.  0.
411  4.10  0.  0.
412  4.11  0.  0.
413  4.12  0.  0.
414  4.13  0.  0.
415  4.14  0.  0.
416  4.15  0.  0.
417  4.16  0.  0.
418  4.17  0.  0.
419  4.18  0.  0.
420  4.19  0.  0.
421  4.20  0.  0.
422  4.21  0.  0.
423  4.22  0.  0.
424  4.23  0.  0.
425  4.24  0.  0.
426  4.25  0.  0.
427  4.26  0.  0.
428  4.27  0.  0.
429  4.28  0.  0.
430  4.29  0.  0.
431  4.30  0.  0.
432  4.31  0.  0.
433  4.32  0.  0.
434  4.33  0.  0.
435  4.34  0.  0.
436  4.35  0.  0.
437  4.36  0.  0.
438  4.37  0.  0.
439  4.38  0.  0.
440  4.39  0.  0.
441  4.40  0.  0.
442  4.41  0.  0.
443  4.42  0.  0.
444  4.43  0.  0.
445  4.44  0.  0.
446  4.45  0.  0.
447  4.46  0.  0.
448  4.47  0.  0.
449  4.48  0.  0.
450  4.49  0.  0.
451  4.50  0.  0.
452  4.51  0.  0.
453  4.52  0.  0.
454  4.53  0.  0.
455  4.54  0.  0.
456  4.55  0.  0.
457  4.56  0.  0.
458  4.57  0.  0.
459  4.58  0.  0.
460  4.59  0.  0.
461  4.60  0.  0.
462  4.61  0.  0.
463  4.62  0.  0.
464  4.63  0.  0.
465  4.64  0.  0.
466  4.65  0.  0.
467  4.66  0.  0.
468  4.67  0.  0.
469  4.68  0.  0.
470  4.69  0.  0.
471  4.70  0.  0.
472  4.71  0.  0.
473  4.72  0.  0.
474  4.73  0.  0.
475  4.74  0.  0.
476  4.75  0.  0.
477  4.76  0.  0.
478  4.77  0.  0.
479  4.78  0.  0.
480  4.79  0.  0.
481  4.80  0.  0.
482  4.81  0.  0.
483  4.82  0.  0.
484  4.83  0.  0.
485  4.84  0.  0.
486  4.85  0.  0.
487  4.86  0.  0.
488  4.87  0.  0.
489  4.88  0.  0.
490  4.89  0.  0.
491  4.90  0.  0.
492  4.91  0.  0.
493  4.92  0.  0.
494  4.93  0.  0.
495  4.94  0.  0.
496  4.95  0.  0.
497  4.96  0.  0.
498  4.97  0.  0.
499  4.98  0.  0.
500  4.99  0.  0.
501  5.00  0.  0.
502  5.01  0.  0.
503  5.02  0.  0.
504  5.03  0.  0.
505  5.04  0.  0.
506  5.05  0.  0.
507  5.06  0.  0.
508  5.07  0.  0.
509  5.08  0.  0.
510  5.09  0.  0.
511  5.10  0.  0.
512  5.11  0.  0.
513  5.12  0.  0.
514  5.13  0.  0.
515  5.14  0.  0.
516  5.15  0.  0.
517  5.16  0.  0.
518  5.17  0.  0.
519  5.18  0.  0.
520  5.19  0.  0.
521  5.20  0.  0.
522  5.21  0.  0.
523  5.22  0.  0.
524  5.23  0.  0.
525  5.24  0.  0.
526  5.25  0.  0.
527  5.26  0.  0.
528  5.27  0.  0.
529  5.28  0.  0.
530  5.29  0.  0.
531  5.30  0.  0.
532  5.31  0.  0.
533  5.32  0.  0.
534  5.33  0.  0.
535  5.34  0.  0.
536  5.35  0.  0.
537  5.36  0.  0.
538  5.37  0.  0.
539  5.38  0.  0.
540  5.39  0.  0.
541  5.40  0.  0.
542  5.41  0.  0.
543  5.42  0.  0.
544  5.43  0.  0.
545  5.44  0.  0.
546  5.45  0.  0.
547  5.46  0.  0.
548  5.47  0.  0.
549  5.48  0.  0.
550  5.49  0.  0.
551  5.50  0.  0.
552  5.51  0.  0.
553  5.52  0.  0.
554  5.53  0.  0.
555  5.54  0.  0.
556  5.55  0.  0.
557  5.56  0.  0.
558  5.57  0.  0.
559  5.58  0.  0.
560  5.59  0.  0.
561  5.60  0.  0.
562  5.61  0.  0.
563  5.62  0.  0.
564  5.63  0.  0.
565  5.64  0.  0.
566  5.65  0.  0.
567  5.66  0.  0.
568  5.67  0.  0.
569  5.68  0.  0.
570  5.69  0.  0.
571  5.70  0.  0.
572  5.71  0.  0.
573  5.72  0.  0.
574  5.73  0.  0.
575  5.74  0.  0.
576  5.75  0.  0.
577  5.76  0.  0.
578  5.77  0.  0.
579  5.78  0.  0.
580  5.79  0.  0.
581  5.80  0.  0.
582  5.81  0.  0.
583  5.82  0.  0.
584  5.83  0.  0.
585  5.84  0.  0.
586  5.85  0.  0.
587  5.86  0.  0.
588  5.87  0.  0.
589  5.88  0.  0.
590  5.89  0.  0.
591  5.90  0.  0.
592  5.91  0.  0.
593  5.92  0.  0.
594  5.93  0.  0.
595  5.94  0.  0.
596  5.95  0.  0.
597  5.96  0.  0.
598  5.97  0.  0.
599  5.98  0.  0.
600  5.99  0.  0.
1                         6.4517775854198E+00  5.5776827409036E-01
1  0.0000000000000E+00  1.5148232668238E-10 -2.0066614619951E-09
2  1.0000000000000E-02  1.2090737098400E-03 -9.6089805833678E-04
3  2.0000000000000E-02  4.8320584319091E-03 -3.8336280169110E-03
4  3.0000000000000E-02  1.0856263242329E-02 -8.5884026995224E-03
5  4.0000000000000E-02  1.9260597528353E-02 -1.5175927328855E-02
6  5.0000000000000E-02  3.0015662140532E-02 -2.3527921596617E-02
7  6.0000000000000E-02  4.3083876525190E-02 -3.3557843178316E-02
8  7.0000000000000E-02  5.8419641348113E-02 -4.5161805369191E-02
9  8.0000000000000E-02  7.5969535968886E-02 -5.8219679511164E-02
10  9.0000000000000E-02  9.5672549965855E-02 -7.2596370939447E-02
11  1.0000000000000E-01  1.1746034774324E-01 -8.8143255316715E-02
12  1.1000000000000E-01  1.4125756507411E-01 -1.0469976045801E-01
13  1.2000000000000E-01  1.6698213624572E-01 -1.2209507709752E-01
14  1.3000000000000E-01  1.9454565027797E-01 -1.4014998052477E-01
15  1.4000000000000E-01  2.2385373448214E-01 -1.5867874363931E-01
16  1.5000000000000E-01  2.5480646341822E-01 -1.7749112075705E-01
17  1.6000000000000E-01  2.8729879109673E-01 -1.9639438046377E-01
18  1.7000000000000E-01  3.2122100405833E-01 -2.1519536496900E-01
19  1.8000000000000E-01  3.5645919275478E-01 -2.3370255278172E-01
20  1.9000000000000E-01  3.9289573845291E-01 -2.5172810112420E-01
21  2.0000000000000E-01  4.3040981269140E-01 -2.6908984433398E-01
22  2.1000000000000E-01  4.6887788614561E-01 -2.8561322459054E-01
23  2.2000000000000E-01  5.0817424360058E-01 -3.0113313165198E-01
24  2.3000000000000E-01  5.4817150160365E-01 -3.1549562890695E-01
25  2.4000000000000E-01  5.8874112526852E-01 -3.2855954394302E-01
26  2.5000000000000E-01  6.2975394063864E-01 -3.4019790300901E-01
27  2.6000000000000E-01  6.7108063899212E-01 -3.5029919020277E-01
28  2.7000000000000E-01  7.1259226948732E-01 -3.5876841394534E-01
29  2.8000000000000E-01  7.5416071661140E-01 -3.6552796529851E-01
30  2.9000000000000E-01  7.9565915900507E-01 -3.7051825493323E-01
31  3.0000000000000E-01  8.3696250639814E-01 -3.7369811804570E-01
32  3.1000000000000E-01  8.7794781160200E-01 -3.7504497922476E-01
33  3.2000000000000E-01  9.1849465476793E-01 -3.7455477217459E-01
34  3.3000000000000E-01  9.5848549743174E-01 -3.7224161226024E-01
35  3.4000000000000E-01  9.9780600422392E-01 -3.6813722303813E-01
36  3.5000000000000E-01  1.0363453305271E+00 -3.6229012122163E-01
37  3.6000000000000E-01  1.0739963748039E+00 -3.5476456787252E-01
38  3.7000000000000E-01  1.1106559947940E+00 -3.4563929695867E-01
39  3.8000000000000E-01  1.1462251872798E+00 -3.3500603573131E-01
40  3.9000000000000E-01  1.1806092316455E+00 -3.2296783460123E-01
41  4.0000000000000E-01  1.2137177979818E+00 -3.0963722728562E-01
42  4.1000000000000E-01  1.2454650210307E+00 -2.9513424490244E-01
43  4.2000000000000E-01  1.2757695417868E+00 -2.7958431035993E-01
44  4.3000000000000E-01  1.3045545190880E+00 -2.6311604177437E-01
45  4.4000000000000E-01  1.3317476140081E+00 -2.4585899570331E-01
46  4.5000000000000E-01  1.3572809503148E+00 -2.2794138265961E-01
47  4.6000000000000E-01  1.3810910546522E+00 -2.0948778863425E-01
48  4.7000000000000E-01  1.4031187804537E+00 -1.9061693716494E-01
49  4.8000000000000E-01  1.4233092198666E+00 -1.7143952681584E-01
50  4.9000000000000E-01  1.4416116081748E+00 -1.5205617875500E-01
51  5.0000000000000E-01  1.4579792253302E+00 -1.3255552841293E-01
52  5.1000000000000E-01  1.4723692992419E+00 -1.1301249397132E-01
53  5.2000000000000E-01  1.4847429154184E+00 -9.3486752661127E-02
54  5.3000000000000E-01  1.4950649374156E+00 -7.4021453552762E-02
55  5.4000000000000E-01  1.5033039423014E+00 -5.4642192714807E-02
56  5.5000000000000E-01  1.5094321750167E+00 -3.5356273324894E-02
57  5.6000000000000E-01  1.5134255250890E+00 -1.6152269573627E-02
58  5.7000000000000E-01  1.5152635286455E+00  3.0000909492045E-03
59  5.8000000000000E-01  1.5149293980829E+00  2.2149716204903E-02
60  5.9000000000000E-01  1.5124100810909E+00  4.1363604615933E-02
61  6.0000000000000E-01  1.5076963500026E+00  6.0725965595273E-02
62  6.1000000000000E-01  1.5007829216747E+00  8.0337010546762E-02
63  6.2000000000000E-01  1.4916686072886E+00  1.0031142446049E-01
64  6.3000000000000E-01  1.4803564906329E+00  1.2077653349479E-01
65  6.4000000000000E-01  1.4668541325886E+00  1.4187018911565E-01
66  6.5000000000000E-01  1.4511737987073E+00  1.6373839436582E-01
67  6.6000000000000E-01  1.4333327059713E+00  1.8653270257441E-01
68  6.7000000000000E-01  1.4133532840589E+00  2.1040742320596E-01
69  6.8000000000000E-01  1.3912634457406E+00  2.3551667350388E-01
70  6.9000000000000E-01  1.3670968604047E+00  2.6201131802726E-01
71  7.0000000000000E-01  1.3408932241744E+00  2.9003584104342E-01
72  7.1000000000000E-01  1.3126985196537E+00  3.1972519895139E-01
73  7.2000000000000E-01  1.2825652580257E+00  3.5120170142472E-01
74  7.3000000000000E-01  1.2505526960502E+00  3.8457197072575E-01
75  7.4000000000000E-01  1.2167270204616E+00  4.1992402862746E-01
76  7.5000000000000E-01  1.1811614923771E+00  4.5732455956115E-01
77  7.6000000000000E-01  1.1439365445729E+00  4.9681639698170E-01
78  7.7000000000000E-01  1.1051398248930E+00  5.3841627751452E-01
79  7.8000000000000E-01  1.0648661796073E+00  5.8211290423868E-01
80  7.9000000000000E-01  1.0232175712297E+00  6.2786535650756E-01
81  8.0000000000000E-01  9.8030292614308E-01  6.7560187905819E-01
82  8.1000000000000E-01  9.3623790833522E-01  7.2521907788062E-01
83  8.2000000000000E-01  8.9114461662112E-01  7.7658154448247E-01
84  8.3000000000000E-01  8.4515120389443E-01  8.2952192388240E-01
85  8.4000000000000E-01  7.9839141819524E-01  8.8384143499849E-01
86  8.5000000000000E-01  7.5100406668139E-01  9.3931084517317E-01
87  8.6000000000000E-01  7.0313240492428E-01  9.9567189350962E-01
88  8.7000000000000E-01  6.5492345529163E-01  1.0526391506120E+00
89  8.8000000000000E-01  6.0652725950463E-01  1.1099022953446E+00
90  8.9000000000000E-01  5.5809607173794E-01  1.1671287824835E+00
91  9.0000000000000E-01  5.0978349984213E-01  1.2239668687512E+00
92  9.1000000000000E-01  4.6174360338288E-01  1.2800489588286E+00
93  9.2000000000000E-01  4.1412995818536E-01  1.3349952276357E+00
94  9.3000000000000E-01  3.6709469791949E-01  1.3884174705816E+00
95  9.4000000000000E-01  3.2078754394380E-01  1.4399231296965E+00
96  9.5000000000000E-01  2.7535483511944E-01  1.4891194406596E+00
97  9.6000000000000E-01  2.3093856959740E-01  1.5356176437976E+00
98  9.7000000000000E-01  1.8767547065712E-01  1.5790372011982E+00
99  9.8000000000000E-01  1.4569608852465E-01  1.6190099622065E+00
100  9.9000000000000E-01  1.0512394971690E-01  1.6551842207432E+00
101  1.0000000000000E+00  6.6074764846308E-02  1.6872286101269E+00
102  1.0100000000000E+00  2.8655704980759E-02  1.7148357843354E+00
103  1.0200000000000E+00 -7.0352444060221E-03  1.7377258388863E+00
104  1.0300000000000E+00 -4.0909844121879E-02  1.7556494296643E+00
105  1.0400000000000E+00 -7.2890070260099E-02  1.7683905539809E+00
106  1.0500000000000E+00 -1.0290848681305E-01  1.7757689648193E+00
107  1.0600000000000E+00 -1.3090851893897E-01  1.7776421964510E+00
108  1.0700000000000E+00 -1.5684462577606E-01  1.7739071872519E+00
109  1.0800000000000E+00 -1.8068237362089E-01  1.7645014934540E+00
110  1.0900000000000E+00 -2.0239841223041E-01  1.7494040955192E+00
111  1.1000000000000E+00 -2.2198035893802E-01  1.7286358066556E+00
112  1.1100000000000E+00 -2.3942659713713E-01  1.7022593004818E+00
113  1.1200000000000E+00 -2.5474599743666E-01  1.6703787817652E+00
114  1.1300000000000E+00 -2.6795757138058E-01  1.6331393303129E+00
115  1.1400000000000E+00 -2.7909006899076E-01  1.5907259532107E+00
116  1.1500000000000E+00 -2.8818153249224E-01  1.5433623844996E+00
117  1.1600000000000E+00 -2.9527881935050E-01  1.4913096737812E+00
118  1.1700000000000E+00 -3.0043710814309E-01  1.4348646059439E+00
119  1.1800000000000E+00 -3.0371940074465E-01  1.3743579929654E+00
120  1.1900000000000E+00 -3.0519603377396E-01  1.3101528753562E+00
121  1.2000000000000E+00 -3.0494421117639E-01  1.2426426650173E+00
122  1.2100000000000E+00 -3.0304756815689E-01  1.1722492529617E+00
123  1.2200000000000E+00 -2.9959577435872E-01  1.0994210941304E+00
124  1.2300000000000E+00 -2.9468418119734E-01  1.0246312674541E+00
125  1.2400000000000E+00 -2.8841351451035E-01  9.4837549192994E-01
126  1.2500000000000E+00 -2.8088960915524E-01  8.7117005876016E-01
127  1.2600000000000E+00 -2.7222317685770E-01  7.9354961545314E-01
128  1.2700000000000E+00 -2.6252959235720E-01  7.1606470968162E-01
129  1.2800000000000E+00 -2.5192867576965E-01  6.3927896888838E-01
130  1.2900000000000E+00 -2.4054444101245E-01  5.6376575580234E-01
131  1.3000000000000E+00 -2.2850477101014E-01  4.9010409973349E-01
132  1.3100000000000E+00 -2.1594097028049E-01  4.1887365903650E-01
133  1.3200000000000E+00 -2.0298713433608E-01  3.5064842123963E-01
134  1.3300000000000E+00 -1.8977926295208E-01  2.8598879328793E-01