Tm    ONCVPSP-4.0.1  r_core=   2.00859   1.60017   1.90331   1.40285
69.0000     23.0000      250626    zatom,zion,pspd
8      11   3     4   600     0    pspcod,pspxc,lmax,lloc,mmax,r2well
5.99000000  8.50000000  0.00000000    rchrg fchrg qchrg
2     2     2     2     0    nproj
1     1           extension_switch
0                         6.9389173873195E+00  9.7904129929297E-01
1  0.0000000000000E+00  7.4399930660718E-11 -2.0996767519099E-10
2  1.0000000000000E-02  4.4722867337709E-02 -2.8236269918287E-03
3  2.0000000000000E-02  8.9412895533636E-02 -5.6741053154365E-03
4  3.0000000000000E-02  1.3403710338513E-01 -8.5777780112270E-03
5  4.0000000000000E-02  1.7856222754762E-01 -1.1559977013494E-02
6  5.0000000000000E-02  2.2295458639420E-01 -1.4644531235269E-02
7  6.0000000000000E-02  2.6717994973884E-01 -1.7853290868770E-02
8  7.0000000000000E-02  3.1120341628973E-01 -2.1205673058282E-02
9  8.0000000000000E-02  3.5498930062501E-01 -2.4718233892286E-02
10  9.0000000000000E-02  3.9850103139120E-01 -2.8404271402668E-02
11  1.0000000000000E-01  4.4170106231616E-01 -3.2273463953255E-02
12  1.1000000000000E-01  4.8455079750456E-01 -3.6331548050475E-02
13  1.2000000000000E-01  5.2701053234466E-01 -4.0580039218761E-02
14  1.3000000000000E-01  5.6903941120357E-01 -4.5015999156029E-02
15  1.4000000000000E-01  6.1059540292345E-01 -4.9631851923970E-02
16  1.5000000000000E-01  6.5163529495668E-01 -5.4415251438283E-02
17  1.6000000000000E-01  6.9211470679351E-01 -5.9349002009918E-02
18  1.7000000000000E-01  7.3198812314475E-01 -6.4411033154340E-02
19  1.8000000000000E-01  7.7120894714427E-01 -6.9574429337359E-02
20  1.9000000000000E-01  8.0972957363497E-01 -7.4807514767636E-02
21  2.0000000000000E-01  8.4750148239836E-01 -8.0073992783374E-02
22  2.1000000000000E-01  8.8447535098358E-01 -8.5333138819195E-02
23  2.2000000000000E-01  9.2060118658975E-01 -9.0540045383995E-02
24  2.3000000000000E-01  9.5582847625570E-01 -9.5645916937330E-02
25  2.4000000000000E-01  9.9010635441791E-01 -1.0059841202598E-01
26  2.5000000000000E-01  1.0233837867100E+00 -1.0534202953865E-01
27  2.6000000000000E-01  1.0556097686991E+00 -1.0981853546102E-01
28  2.7000000000000E-01  1.0867335380877E+00 -1.1396742606981E-01
29  2.8000000000000E-01  1.1167047987525E+00 -1.1772642309850E-01
30  2.9000000000000E-01  1.1454739548514E+00 -1.2103199604247E-01
31  3.0000000000000E-01  1.1729923531045E+00 -1.2381990645246E-01
32  3.1000000000000E-01  1.1992125312413E+00 -1.2602576879543E-01
33  3.2000000000000E-01  1.2240884705185E+00 -1.2758562224452E-01
34  3.3000000000000E-01  1.2475758501368E+00 -1.2843650759809E-01
35  3.4000000000000E-01  1.2696323013326E+00 -1.2851704342308E-01
36  3.5000000000000E-01  1.2902176588855E+00 -1.2776799547323E-01
37  3.6000000000000E-01  1.3092942077742E+00 -1.2613283344816E-01
38  3.7000000000000E-01  1.3268269227173E+00 -1.2355826923604E-01
39  3.8000000000000E-01  1.3427836983703E+00 -1.1999477092089E-01
40  3.9000000000000E-01  1.3571355680005E+00 -1.1539704703417E-01
41  4.0000000000000E-01  1.3698569085343E+00 -1.0972449578920E-01
42  4.1000000000000E-01  1.3809256299676E+00 -1.0294161435300E-01
43  4.2000000000000E-01  1.3903233472416E+00 -9.5018363582177E-02
44  4.3000000000000E-01  1.3980355328240E+00 -8.5930484073973E-02
45  4.4000000000000E-01  1.4040516483825E+00 -7.5659759856837E-02
46  4.5000000000000E-01  1.4083652541133E+00 -6.4194226563491E-02
47  4.6000000000000E-01  1.4109740944661E+00 -5.1528321487870E-02
48  4.7000000000000E-01  1.4118801592114E+00 -3.7662973521227E-02
49  4.8000000000000E-01  1.4110897190041E+00 -2.2605631586082E-02
50  4.9000000000000E-01  1.4086133348225E+00 -6.3702308337403E-03
51  5.0000000000000E-01  1.4044658408921E+00  1.1022903464685E-02
52  5.1000000000000E-01  1.3986663009388E+00  2.9547213728752E-02
53  5.2000000000000E-01  1.3912379378627E+00  4.9170128297012E-02
54  5.3000000000000E-01  1.3822080371636E+00  6.9853338114082E-02
55  5.4000000000000E-01  1.3716078246947E+00  9.1553129252241E-02
56  5.5000000000000E-01  1.3594723195625E+00  1.1422076799612E-01
57  5.6000000000000E-01  1.3458401632255E+00  1.3780293459592E-01
58  5.7000000000000E-01  1.3307534260755E+00  1.6224220120423E-01
59  5.8000000000000E-01  1.3142573930018E+00  1.8747754895876E-01
60  5.9000000000000E-01  1.2964003296475E+00  2.1344491866634E-01
61  6.0000000000000E-01  1.2772332312615E+00  2.4007778908769E-01
62  6.1000000000000E-01  1.2568095562232E+00  2.6730777642398E-01
63  6.2000000000000E-01  1.2351849464816E+00  2.9506524827014E-01
64  6.3000000000000E-01  1.2124169372850E+00  3.2327994503117E-01
65  6.4000000000000E-01  1.1885646586992E+00  3.5188160160044E-01
66  6.5000000000000E-01  1.1636885315066E+00  3.8080056197694E-01
67  6.6000000000000E-01  1.1378499601497E+00  4.0996837945379E-01
68  6.7000000000000E-01  1.1111110254297E+00  4.3931839504591E-01
69  6.8000000000000E-01  1.0835341796939E+00  4.6878628694142E-01
70  6.9000000000000E-01  1.0551819472374E+00  4.9831058395925E-01
71  7.0000000000000E-01  1.0261166326158E+00  5.2783313627495E-01
72  7.1000000000000E-01  9.9640003950784E-01  5.5729953703588E-01
73  7.2000000000000E-01  9.6609320268296E-01  5.8665948892442E-01
74  7.3000000000000E-01  9.3525613551816E-01  6.1586711023993E-01
75  7.4000000000000E-01  9.0394759537694E-01  6.4488117565422E-01
76  7.5000000000000E-01  8.7222486900268E-01  6.7366528744610E-01
77  7.6000000000000E-01  8.4014357989899E-01  7.0218797373321E-01
78  7.7000000000000E-01  8.0775751946710E-01  7.3042271098816E-01
79  7.8000000000000E-01  7.7511850344811E-01  7.5834786894485E-01
80  7.9000000000000E-01  7.4227625497798E-01  7.8594657686155E-01
81  8.0000000000000E-01  7.0927831530668E-01  8.1320651100425E-01
82  8.1000000000000E-01  6.7616998296271E-01  8.4011960413774E-01
83  8.2000000000000E-01  6.4299428186159E-01  8.6668167875446E-01
84  8.3000000000000E-01  6.0979195856495E-01  8.9289200672625E-01
85  8.4000000000000E-01  5.7660150859697E-01  9.1875279901940E-01
86  8.5000000000000E-01  5.4345923142041E-01  9.4426863006418E-01
87  8.6000000000000E-01  5.1039931336641E-01  9.6944580230450E-01
88  8.7000000000000E-01  4.7745393750437E-01  9.9429165736510E-01
89  8.8000000000000E-01  4.4465341913174E-01  1.0188138411529E+00
90  8.9000000000000E-01  4.1202636526096E-01  1.0430195310484E+00
91  9.0000000000000E-01  3.7959985618518E-01  1.0669146341342E+00
92  9.1000000000000E-01  3.4739964691627E-01  1.0905029661422E+00
93  9.2000000000000E-01  3.1545038601172E-01  1.1137854214745E+00
94  9.3000000000000E-01  2.8377584904230E-01  1.1367591452524E+00
95  9.4000000000000E-01  2.5239918370234E-01  1.1594167188740E+00
96  9.5000000000000E-01  2.2134316333049E-01  1.1817453710024E+00
97  9.6000000000000E-01  1.9063044539359E-01  1.2037262262560E+00
98  9.7000000000000E-01  1.6028383129096E-01  1.2253336041299E+00
99  9.8000000000000E-01  1.3032652366277E-01  1.2465343808319E+00
100  9.9000000000000E-01  1.0078237723720E-01  1.2672874267629E+00
101  1.0000000000000E+00  7.1676139127291E-02  1.2875431323049E+00
102  1.0100000000000E+00  4.3033674393049E-02  1.3072430343980E+00
103  1.0200000000000E+00  1.4882172619265E-02  1.3263195560726E+00
104  1.0300000000000E+00 -1.2749668772943E-02  1.3446958706638E+00
105  1.0400000000000E+00 -3.9831488759504E-02  1.3622859018501E+00
106  1.0500000000000E+00 -6.6331138728583E-02  1.3789944699292E+00
107  1.0600000000000E+00 -9.2214594430289E-02  1.3947175938521E+00
108  1.0700000000000E+00 -1.1744590788392E-01  1.4093429574852E+00
109  1.0800000000000E+00 -1.4198720308497E-01  1.4227505473303E+00
110  1.0900000000000E+00 -1.6579871911874E-01  1.4348134675062E+00
111  1.1000000000000E+00 -1.8883890399056E-01  1.4453989361575E+00
112  1.1100000000000E+00 -2.1106456211882E-01  1.4543694655976E+00
113  1.1200000000000E+00 -2.3243105799987E-01  1.4615842263868E+00
114  1.1300000000000E+00 -2.5289257803366E-01  1.4669005931786E+00
115  1.1400000000000E+00 -2.7240245189098E-01  1.4701758675131E+00
116  1.1500000000000E+00 -2.9091353409332E-01  1.4712691697644E+00
117  1.1600000000000E+00 -3.0837864566025E-01  1.4700434891462E+00
118  1.1700000000000E+00 -3.2475107473997E-01  1.4663678769915E+00
119  1.1800000000000E+00 -3.3998513407038E-01  1.4601197644446E+00
120  1.1900000000000E+00 -3.5403677190424E-01  1.4511873811796E+00
121  1.2000000000000E+00 -3.6686423165819E-01  1.4394722467503E+00
122  1.2100000000000E+00 -3.7842875400747E-01  1.4248917006754E+00
123  1.2200000000000E+00 -3.8869531340956E-01  1.4073814312579E+00
124  1.2300000000000E+00 -3.9763337911640E-01  1.3868979564779E+00
125  1.2400000000000E+00 -4.0521768857653E-01  1.3634210029425E+00
126  1.2500000000000E+00 -4.1142901873843E-01  1.3369557208228E+00
127  1.2600000000000E+00 -4.1625493813473E-01  1.3075346639474E+00
128  1.2700000000000E+00 -4.1969051969658E-01  1.2752194545596E+00
129  1.2800000000000E+00 -4.2173899104702E-01  1.2401020417917E+00
130  1.2900000000000E+00 -4.2241229551000E-01  1.2023054515292E+00
131  1.3000000000000E+00 -4.2173153320551E-01  1.1619839128973E+00
132  1.3100000000000E+00 -4.1972724740031E-01  1.1193222331767E+00
133  1.3200000000000E+00 -4.1643951671977E-01  1.0745342784456E+00
134  1.3300000000000E+00 -4.1191780882481E-01  1.0278604014311E+00
135  1.3400000000000E+00 -4.0622054577458E-01  9.7956364110197E-01
136  1.3500000000000E+00 -3.9941432545104E-01  9.2992450020583E-01
137  1.3600000000000E+00 -3.9157273712108E-01  8.7923408725990E-01
138  1.3700000000000E+00 -3.8277470238787E-01  8.2778538823845E-01
139  1.3800000000000E+00 -3.7310226492023E-01  7.7586240739323E-01
140  1.3900000000000E+00 -3.6263774307370E-01  7.2372688561954E-01
141  1.4000000000000E+00 -3.5146020299790E-01  6.7160255844743E-01
142  1.4100000000000E+00 -3.3964107953714E-01  6.1965624333437E-01
143  1.4200000000000E+00 -3.2724484967969E-01  5.6800822166058E-01
144  1.4300000000000E+00 -3.1433572356034E-01  5.1677358729617E-01
145  1.4400000000000E+00 -3.0097924290884E-01  4.6607225425925E-01
146  1.4500000000000E+00 -2.8724193079329E-01  4.1602777463616E-01
147  1.4600000000000E+00 -2.7319099613443E-01  3.6676651087985E-01
148  1.4700000000000E+00 -2.5889401300012E-01  3.1841670169806E-01
149  1.4800000000000E+00 -2.4441858704437E-01  2.7110748552335E-01
150  1.4900000000000E+00 -2.2983201168934E-01  2.2496788930825E-01
151  1.5000000000000E+00 -2.1520091694380E-01  1.8012579167450E-01
152  1.5100000000000E+00 -2.0059091386543E-01  1.3670686978565E-01
153  1.5200000000000E+00 -1.8606623765229E-01  9.4833539076498E-02
154  1.5300000000000E+00 -1.7168939293165E-01  5.4623897620422E-02
155  1.5400000000000E+00 -1.5752080374911E-01  1.6190681862153E-02
156  1.5500000000000E+00 -1.4361847193931E-01 -2.0359754019201E-02
157  1.5600000000000E+00 -1.3003764749615E-01 -5.4928423087655E-02
158  1.5700000000000E+00 -1.1683051287469E-01 -8.7424650772899E-02
159  1.5800000000000E+00 -1.0404588539366E-01 -1.1776696527666E-01
160  1.5900000000000E+00 -9.1728940076565E-02 -1.4588392680726E-01
161  1.6000000000000E+00 -7.9920955868014E-02 -1.7171488613421E-01
162  1.6100000000000E+00 -6.8659087792541E-02 -1.9521066440389E-01
163  1.6200000000000E+00 -5.7976167422194E-02 -2.1633414676570E-01
164  1.6300000000000E+00 -4.7900533823131E-02 -2.3506078292231E-01
165  1.6400000000000E+00 -3.8455896863153E-02 -2.5137898865902E-01
166  1.6500000000000E+00 -2.9661234492217E-02 -2.6529044323829E-01
167  1.6600000000000E+00 -2.1530725333937E-02 -2.7681027837947E-01
168  1.6700000000000E+00 -1.4073717580455E-02 -2.8596715566214E-01
169  1.6800000000000E+00 -7.2947348942600E-03 -2.9280323005705E-01
170  1.6900000000000E+00 -1.1935196530901E-03 -2.9737399847397E-01
171  1.7000000000000E+00  4.2348864307829E-03 -2.9974803313466E-01
172  1.7100000000000E+00  9.0000246564156E-03 -3.0000660076862E-01
173  1.7200000000000E+00  1.3115865320819E-02 -2.9824316967391E-01
174  1.7300000000000E+00  1.6600618346916E-02 -2.9456280769178E-01
175  1.7400000000000E+00  1.9476509904163E-02 -2.8908147525925E-01
176  1.7500000000000E+00  2.1769526694403E-02 -2.8192521870949E-01
177  1.7600000000000E+00  2.3509129866034E-02 -2.7322926988516E-01
178  1.7700000000000E+00  2.4727940840183E-02 -2.6313705915946E-01
179  1.7800000000000E+00  2.5461401549185E-02 -2.5179914959725E-01
180  1.7900000000000E+00  2.5747412190765E-02 -2.3937210212034E-01
181  1.8000000000000E+00  2.5625948241664E-02 -2.2601727620740E-01
182  1.8100000000000E+00  2.5138662831203E-02 -2.1189958712456E-01
183  1.8200000000000E+00  2.4328474210291E-02 -1.9718621632482E-01
184  1.8300000000000E+00  2.3239144185519E-02 -1.8204529492157E-01
185  1.8400000000000E+00  2.1914851081359E-02 -1.6664457129257E-01
186  1.8500000000000E+00  2.0399759897709E-02 -1.5115007040793E-01
187  1.8600000000000E+00  1.8737594228241E-02 -1.3572475967997E-01
188  1.8700000000000E+00  1.6971213612268E-02 -1.2052723251440E-01
189  1.8800000000000E+00  1.5142198930276E-02 -1.0571041812762E-01
190  1.8900000000000E+00  1.3290448080934E-02 -9.1420325182841E-02
191  1.9000000000000E+00  1.1453815007382E-02 -7.7794911084393E-02
192  1.9100000000000E+00  9.6675438231720E-03 -6.4962396101686E-02
193  1.9200000000000E+00  7.9626382322621E-03 -5.3036524289942E-02
194  1.9300000000000E+00  6.3681049743128E-03 -4.2122755653733E-02
195  1.9400000000000E+00  4.9112398227448E-03 -3.2319071947983E-02
196  1.9500000000000E+00  3.6153103146636E-03 -2.3709461076566E-02
197  1.9600000000000E+00  2.4996324924281E-03 -1.6364040508610E-02
198  1.9700000000000E+00  1.5793478695574E-03 -1.0338372979521E-02
199  1.9800000000000E+00  8.6560938132642E-04 -5.6752205579178E-03
200  1.9900000000000E+00  3.6189275906766E-04 -2.3802437812297E-03
201  2.0000000000000E+00  8.1310075470927E-05 -5.3753758998931E-04
202  2.0100000000000E+00 -4.0678690311208E-06  2.6998639221176E-05
203  2.0200000000000E+00 -7.9733265969935E-07  5.3085413434420E-06
204  2.03  0. -0.
205  2.04 -0.  0.
206  2.05 -0. -0.
207  2.06  0.  0.
208  2.07  0.  0.
209  2.08  0.  0.
210  2.09  0.  0.
211  2.10  0.  0.
212  2.11  0.  0.
213  2.12  0.  0.
214  2.13  0.  0.
215  2.14  0.  0.
216  2.15  0.  0.
217  2.16  0.  0.
218  2.17  0.  0.
219  2.18  0.  0.
220  2.19  0.  0.
221  2.20  0.  0.
222  2.21  0.  0.
223  2.22  0.  0.
224  2.23  0.  0.
225  2.24  0.  0.
226  2.25  0.  0.
227  2.26  0.  0.
228  2.27  0.  0.
229  2.28  0.  0.
230  2.29  0.  0.
231  2.30  0.  0.
232  2.31  0.  0.
233  2.32  0.  0.
234  2.33  0.  0.
235  2.34  0.  0.
236  2.35  0.  0.
237  2.36  0.  0.
238  2.37  0.  0.
239  2.38  0.  0.
240  2.39  0.  0.
241  2.40  0.  0.
242  2.41  0.  0.
243  2.42  0.  0.
244  2.43  0.  0.
245  2.44  0.  0.
246  2.45  0.  0.
247  2.46  0.  0.
248  2.47  0.  0.
249  2.48  0.  0.
250  2.49  0.  0.
251  2.50  0.  0.
252  2.51  0.  0.
253  2.52  0.  0.
254  2.53  0.  0.
255  2.54  0.  0.
256  2.55  0.  0.
257  2.56  0.  0.
258  2.57  0.  0.
259  2.58  0.  0.
260  2.59  0.  0.
261  2.60  0.  0.
262  2.61  0.  0.
263  2.62  0.  0.
264  2.63  0.  0.
265  2.64  0.  0.
266  2.65  0.  0.
267  2.66  0.  0.
268  2.67  0.  0.
269  2.68  0.  0.
270  2.69  0.  0.
271  2.70  0.  0.
272  2.71  0.  0.
273  2.72  0.  0.
274  2.73  0.  0.
275  2.74  0.  0.
276  2.75  0.  0.
277  2.76  0.  0.
278  2.77  0.  0.
279  2.78  0.  0.
280  2.79  0.  0.
281  2.80  0.  0.
282  2.81  0.  0.
283  2.82  0.  0.
284  2.83  0.  0.
285  2.84  0.  0.
286  2.85  0.  0.
287  2.86  0.  0.
288  2.87  0.  0.
289  2.88  0.  0.
290  2.89  0.  0.
291  2.90  0.  0.
292  2.91  0.  0.
293  2.92  0.  0.
294  2.93  0.  0.
295  2.94  0.  0.
296  2.95  0.  0.
297  2.96  0.  0.
298  2.97  0.  0.
299  2.98  0.  0.
300  2.99  0.  0.
301  3.00  0.  0.
302  3.01  0.  0.
303  3.02  0.  0.
304  3.03  0.  0.
305  3.04  0.  0.
306  3.05  0.  0.
307  3.06  0.  0.
308  3.07  0.  0.
309  3.08  0.  0.
310  3.09  0.  0.
311  3.10  0.  0.
312  3.11  0.  0.
313  3.12  0.  0.
314  3.13  0.  0.
315  3.14  0.  0.
316  3.15  0.  0.
317  3.16  0.  0.
318  3.17  0.  0.
319  3.18  0.  0.
320  3.19  0.  0.
321  3.20  0.  0.
322  3.21  0.  0.
323  3.22  0.  0.
324  3.23  0.  0.
325  3.24  0.  0.
326  3.25  0.  0.
327  3.26  0.  0.
328  3.27  0.  0.
329  3.28  0.  0.
330  3.29  0.  0.
331  3.30  0.  0.
332  3.31  0.  0.
333  3.32  0.  0.
334  3.33  0.  0.
335  3.34  0.  0.
336  3.35  0.  0.
337  3.36  0.  0.
338  3.37  0.  0.
339  3.38  0.  0.
340  3.39  0.  0.
341  3.40  0.  0.
342  3.41  0.  0.
343  3.42  0.  0.
344  3.43  0.  0.
345  3.44  0.  0.
346  3.45  0.  0.
347  3.46  0.  0.
348  3.47  0.  0.
349  3.48  0.  0.
350  3.49  0.  0.
351  3.50  0.  0.
352  3.51  0.  0.
353  3.52  0.  0.
354  3.53  0.  0.
355  3.54  0.  0.
356  3.55  0.  0.
357  3.56  0.  0.
358  3.57  0.  0.
359  3.58  0.  0.
360  3.59  0.  0.
361  3.60  0.  0.
362  3.61  0.  0.
363  3.62  0.  0.
364  3.63  0.  0.
365  3.64  0.  0.
366  3.65  0.  0.
367  3.66  0.  0.
368  3.67  0.  0.
369  3.68  0.  0.
370  3.69  0.  0.
371  3.70  0.  0.
372  3.71  0.  0.
373  3.72  0.  0.
374  3.73  0.  0.
375  3.74  0.  0.
376  3.75  0.  0.
377  3.76  0.  0.
378  3.77  0.  0.
379  3.78  0.  0.
380  3.79  0.  0.
381  3.80  0.  0.
382  3.81  0.  0.
383  3.82  0.  0.
384  3.83  0.  0.
385  3.84  0.  0.
386  3.85  0.  0.
387  3.86  0.  0.
388  3.87  0.  0.
389  3.88  0.  0.
390  3.89  0.  0.
391  3.90  0.  0.
392  3.91  0.  0.
393  3.92  0.  0.
394  3.93  0.  0.
395  3.94  0.  0.
396  3.95  0.  0.
397  3.96  0.  0.
398  3.97  0.  0.
399  3.98  0.  0.
400  3.99  0.  0.
401  4.00  0.  0.
402  4.01  0.  0.
403  4.02  0.  0.
404  4.03  0.  0.
405  4.04  0.  0.
406  4.05  0.  0.
407  4.06  0.  0.
408  4.07  0.  0.
409  4.08  0.  0.
410  4.09  0.  0.
411  4.10  0.  0.
412  4.11  0.  0.
413  4.12  0.  0.
414  4.13  0.  0.
415  4.14  0.  0.
416  4.15  0.  0.
417  4.16  0.  0.
418  4.17  0.  0.
419  4.18  0.  0.
420  4.19  0.  0.
421  4.20  0.  0.
422  4.21  0.  0.
423  4.22  0.  0.
424  4.23  0.  0.
425  4.24  0.  0.
426  4.25  0.  0.
427  4.26  0.  0.
428  4.27  0.  0.
429  4.28  0.  0.
430  4.29  0.  0.
431  4.30  0.  0.
432  4.31  0.  0.
433  4.32  0.  0.
434  4.33  0.  0.
435  4.34  0.  0.
436  4.35  0.  0.
437  4.36  0.  0.
438  4.37  0.  0.
439  4.38  0.  0.
440  4.39  0.  0.
441  4.40  0.  0.
442  4.41  0.  0.
443  4.42  0.  0.
444  4.43  0.  0.
445  4.44  0.  0.
446  4.45  0.  0.
447  4.46  0.  0.
448  4.47  0.  0.
449  4.48  0.  0.
450  4.49  0.  0.
451  4.50  0.  0.
452  4.51  0.  0.
453  4.52  0.  0.
454  4.53  0.  0.
455  4.54  0.  0.
456  4.55  0.  0.
457  4.56  0.  0.
458  4.57  0.  0.
459  4.58  0.  0.
460  4.59  0.  0.
461  4.60  0.  0.
462  4.61  0.  0.
463  4.62  0.  0.
464  4.63  0.  0.
465  4.64  0.  0.
466  4.65  0.  0.
467  4.66  0.  0.
468  4.67  0.  0.
469  4.68  0.  0.
470  4.69  0.  0.
471  4.70  0.  0.
472  4.71  0.  0.
473  4.72  0.  0.
474  4.73  0.  0.
475  4.74  0.  0.
476  4.75  0.  0.
477  4.76  0.  0.
478  4.77  0.  0.
479  4.78  0.  0.
480  4.79  0.  0.
481  4.80  0.  0.
482  4.81  0.  0.
483  4.82  0.  0.
484  4.83  0.  0.
485  4.84  0.  0.
486  4.85  0.  0.
487  4.86  0.  0.
488  4.87  0.  0.
489  4.88  0.  0.
490  4.89  0.  0.
491  4.90  0.  0.
492  4.91  0.  0.
493  4.92  0.  0.
494  4.93  0.  0.
495  4.94  0.  0.
496  4.95  0.  0.
497  4.96  0.  0.
498  4.97  0.  0.
499  4.98  0.  0.
500  4.99  0.  0.
501  5.00  0.  0.
502  5.01  0.  0.
503  5.02  0.  0.
504  5.03  0.  0.
505  5.04  0.  0.
506  5.05  0.  0.
507  5.06  0.  0.
508  5.07  0.  0.
509  5.08  0.  0.
510  5.09  0.  0.
511  5.10  0.  0.
512  5.11  0.  0.
513  5.12  0.  0.
514  5.13  0.  0.
515  5.14  0.  0.
516  5.15  0.  0.
517  5.16  0.  0.
518  5.17  0.  0.
519  5.18  0.  0.
520  5.19  0.  0.
521  5.20  0.  0.
522  5.21  0.  0.
523  5.22  0.  0.
524  5.23  0.  0.
525  5.24  0.  0.
526  5.25  0.  0.
527  5.26  0.  0.
528  5.27  0.  0.
529  5.28  0.  0.
530  5.29  0.  0.
531  5.30  0.  0.
532  5.31  0.  0.
533  5.32  0.  0.
534  5.33  0.  0.
535  5.34  0.  0.
536  5.35  0.  0.
537  5.36  0.  0.
538  5.37  0.  0.
539  5.38  0.  0.
540  5.39  0.  0.
541  5.40  0.  0.
542  5.41  0.  0.
543  5.42  0.  0.
544  5.43  0.  0.
545  5.44  0.  0.
546  5.45  0.  0.
547  5.46  0.  0.
548  5.47  0.  0.
549  5.48  0.  0.
550  5.49  0.  0.
551  5.50  0.  0.
552  5.51  0.  0.
553  5.52  0.  0.
554  5.53  0.  0.
555  5.54  0.  0.
556  5.55  0.  0.
557  5.56  0.  0.
558  5.57  0.  0.
559  5.58  0.  0.
560  5.59  0.  0.
561  5.60  0.  0.
562  5.61  0.  0.
563  5.62  0.  0.
564  5.63  0.  0.
565  5.64  0.  0.
566  5.65  0.  0.
567  5.66  0.  0.
568  5.67  0.  0.
569  5.68  0.  0.
570  5.69  0.  0.
571  5.70  0.  0.
572  5.71  0.  0.
573  5.72  0.  0.
574  5.73  0.  0.
575  5.74  0.  0.
576  5.75  0.  0.
577  5.76  0.  0.
578  5.77  0.  0.
579  5.78  0.  0.
580  5.79  0.  0.
581  5.80  0.  0.
582  5.81  0.  0.
583  5.82  0.  0.
584  5.83  0.  0.
585  5.84  0.  0.
586  5.85  0.  0.
587  5.86  0.  0.
588  5.87  0.  0.
589  5.88  0.  0.
590  5.89  0.  0.
591  5.90  0.  0.
592  5.91  0.  0.
593  5.92  0.  0.
594  5.93  0.  0.
595  5.94  0.  0.
596  5.95  0.  0.
597  5.96  0.  0.
598  5.97  0.  0.
599  5.98  0.  0.
600  5.99  0.  0.
1                         6.3939325636675E+00  5.4168900728924E-01
1  0.0000000000000E+00  4.3525882897910E-10 -3.1734154193330E-09
2  1.0000000000000E-02  1.2244242249863E-03 -1.0436788784070E-03
3  2.0000000000000E-02  4.8930560009664E-03 -4.1629673988199E-03
4  3.0000000000000E-02  1.0991999422919E-02 -9.3227622611085E-03
5  4.0000000000000E-02  1.9498183720934E-02 -1.6465026367947E-02
6  5.0000000000000E-02  3.0379496048929E-02 -2.5509485342148E-02
7  6.0000000000000E-02  4.3594965758540E-02 -3.6354590548687E-02
8  7.0000000000000E-02  5.9094998545590E-02 -4.8878736685206E-02
9  8.0000000000000E-02  7.6821658421267E-02 -6.2941718831358E-02
10  9.0000000000000E-02  9.6708995043281E-02 -7.8386410846054E-02
11  1.0000000000000E-01  1.1868341354870E-01 -9.5040644211764E-02
12  1.1000000000000E-01  1.4266408366284E-01 -1.1271926387610E-01
13  1.2000000000000E-01  1.6856338452201E-01 -1.3122633536656E-01
14  1.3000000000000E-01  1.9628738134497E-01 -1.5035747548182E-01
15  1.4000000000000E-01  2.2573632982272E-01 -1.6990227721779E-01
16  1.5000000000000E-01  2.5680520387099E-01 -1.8964679829071E-01
17  1.6000000000000E-01  2.8938424220807E-01 -2.0937608169267E-01
18  1.7000000000000E-01  3.2335950908453E-01 -2.2887667616948E-01
19  1.8000000000000E-01  3.5861346440331E-01 -2.4793912436034E-01
20  1.9000000000000E-01  3.9502553842972E-01 -2.6636038658699E-01
21  2.0000000000000E-01  4.3247270630378E-01 -2.8394616893127E-01
22  2.1000000000000E-01  4.7083005763094E-01 -3.0051312529014E-01
23  2.2000000000000E-01  5.0997135654400E-01 -3.1589090453999E-01
24  2.3000000000000E-01  5.4976958779647E-01 -3.2992401576499E-01
25  2.4000000000000E-01  5.9009748466724E-01 -3.4247348669163E-01
26  2.5000000000000E-01  6.3082803472468E-01 -3.5341829300054E-01
27  2.6000000000000E-01  6.7183495981468E-01 -3.6265653903408E-01
28  2.7000000000000E-01  7.1299316699768E-01 -3.7010637355039E-01
29  2.8000000000000E-01  7.5417916756275E-01 -3.7570662756085E-01
30  2.9000000000000E-01  7.9527146168561E-01 -3.7941716488632E-01
31  3.0000000000000E-01  8.3615088677105E-01 -3.8121893984046E-01
32  3.1000000000000E-01  8.7670092801942E-01 -3.8111376034512E-01
33  3.2000000000000E-01  9.1680799027922E-01 -3.7912375876239E-01
34  3.3000000000000E-01  9.5636163078468E-01 -3.7529057673322E-01
35  3.4000000000000E-01  9.9525475292323E-01 -3.6967427429788E-01
36  3.5000000000000E-01  1.0333837617246E+00 -3.6235197748173E-01
37  3.6000000000000E-01  1.0706486823049E+00 -3.5341628230999E-01
38  3.7000000000000E-01  1.1069532430247E+00 -3.4297343681339E-01
39  3.8000000000000E-01  1.1422049256283E+00 -3.3114132595098E-01
40  3.9000000000000E-01  1.1763149851040E+00 -3.1804728745589E-01
41  4.0000000000000E-01  1.2091984424462E+00 -3.0382578935762E-01
42  4.1000000000000E-01  1.2407740538928E+00 -2.8861600230410E-01
43  4.2000000000000E-01  1.2709642605543E+00 -2.7255930175858E-01
44  4.3000000000000E-01  1.2996951226315E+00 -2.5579673664250E-01
45  4.4000000000000E-01  1.3268962426412E+00 -2.3846650200647E-01
46  4.5000000000000E-01  1.3525006822148E+00 -2.2070145380978E-01
47  4.6000000000000E-01  1.3764448771101E+00 -2.0262670385742E-01
48  4.7000000000000E-01  1.3986685550725E+00 -1.8435733236875E-01
49  4.8000000000000E-01  1.4191146610991E+00 -1.6599625453113E-01
50  4.9000000000000E-01  1.4377292944939E+00 -1.4763227572535E-01
51  5.0000000000000E-01  1.4544616618533E+00 -1.2933836791071E-01
52  5.1000000000000E-01  1.4692640497993E+00 -1.1117019694455E-01
53  5.2000000000000E-01  1.4820918208719E+00 -9.3164927409570E-02
54  5.3000000000000E-01  1.4929034355131E+00 -7.5340327869255E-02
55  5.4000000000000E-01  1.5016605025379E+00 -5.7694195408785E-02
56  5.5000000000000E-01  1.5083278598739E+00 -4.0204113894819E-02
57  5.6000000000000E-01  1.5128736867008E+00 -2.2827555661509E-02
58  5.7000000000000E-01  1.5152696474164E+00 -5.5023313626034E-03
59  5.8000000000000E-01  1.5154910671203E+00  1.1852612410083E-02
60  5.9000000000000E-01  1.5135171375556E+00  2.9336053380684E-02
61  6.0000000000000E-01  1.5093311516779E+00  4.7063022616747E-02
62  6.1000000000000E-01  1.5029207642621E+00  6.5163018438219E-02
63  6.2000000000000E-01  1.4942782752129E+00  8.3777926386168E-02
64  6.3000000000000E-01  1.4834009315273E+00  1.0305967128446E-01
65  6.4000000000000E-01  1.4702912431887E+00  1.2316763198624E-01
66  6.5000000000000E-01  1.4549573076574E+00  1.4426585358399E-01
67  6.6000000000000E-01  1.4374131370798E+00  1.6652009560323E-01
68  6.7000000000000E-01  1.4176789818757E+00  1.9009475792761E-01
69  6.8000000000000E-01  1.3957816439990E+00  2.1514972885654E-01
70  6.9000000000000E-01  1.3717547729024E+00  2.4183720171894E-01
71  7.0000000000000E-01  1.3456391370853E+00  2.7029850781629E-01
72  7.1000000000000E-01  1.3174828640777E+00  3.0066101410433E-01
73  7.2000000000000E-01  1.2873416418028E+00  3.3303513392484E-01
74  7.3000000000000E-01  1.2552788744891E+00  3.6751149824848E-01
75  7.4000000000000E-01  1.2213657866526E+00  4.0415833328787E-01
76  7.5000000000000E-01  1.1856814691527E+00  4.4301908799462E-01
77  7.6000000000000E-01  1.1483128619336E+00  4.8411035188862E-01
78  7.7000000000000E-01  1.1093546687858E+00  5.2742009991718E-01
79  7.8000000000000E-01  1.0689092003051E+00  5.7290629665305E-01
80  7.9000000000000E-01  1.0270861421616E+00  6.2049588717261E-01
81  8.0000000000000E-01  9.8400224681868E-01  6.7008419648026E-01
82  8.1000000000000E-01  9.3978094794589E-01  7.2153475344051E-01
83  8.2000000000000E-01  8.9455189792258E-01  7.7467954893905E-01
84  8.3000000000000E-01  8.4845043003012E-01  8.2931973151163E-01
85  8.4000000000000E-01  8.0161694814311E-01  8.8522673706355E-01
86  8.5000000000000E-01  7.5419624794472E-01  9.4214384265962E-01
87  8.6000000000000E-01  7.0633677488106E-01  9.9978812780700E-01
88  8.7000000000000E-01  6.5818982521409E-01  1.0578528202971E+00
89  8.8000000000000E-01  6.0990869760881E-01  1.1160099976282E+00
90  8.9000000000000E-01  5.6164780367785E-01  1.1739136094085E+00
91  9.0000000000000E-01  5.1356174678294E-01  1.2312027810466E+00
92  9.1000000000000E-01  4.6580437913859E-01  1.2875053545693E+00
93  9.2000000000000E-01  4.1852784786032E-01  1.3424416186552E+00
94  9.3000000000000E-01  3.7188164103194E-01  1.3956281770193E+00
95  9.4000000000000E-01  3.2601164511895E-01  1.4466819021868E+00
96  9.5000000000000E-01  2.8105922511731E-01  1.4952239205188E+00
97  9.6000000000000E-01  2.3716033869077E-01  1.5408835741221E+00
98  9.7000000000000E-01  1.9444469520945E-01  1.5833023060189E+00
99  9.8000000000000E-01  1.5303497005746E-01  1.6221374166726E+00
100  9.9000000000000E-01  1.1304608382936E-01  1.6570656426402E+00
101  1.0000000000000E+00  7.4584555090642E-02  1.6877865117262E+00
102  1.0100000000000E+00  3.7747934247071E-02  1.7140254334820E+00
103  1.0200000000000E+00  2.6243247646721E-03  1.7355364891695E+00
104  1.0300000000000E+00 -3.0708003475469E-02  1.7521048912898E+00
105  1.0400000000000E+00 -6.2180905490641E-02  1.7635490893506E+00
106  1.0500000000000E+00 -9.1736555678005E-02  1.7697225056125E+00
107  1.0600000000000E+00 -1.1932754573564E-01  1.7705148919400E+00
108  1.0700000000000E+00 -1.4491688810934E-01  1.7658533064500E+00
109  1.0800000000000E+00 -1.6847792887937E-01  1.7557027162445E+00
110  1.0900000000000E+00 -1.8999417579364E-01  1.7400662399185E+00
111  1.1000000000000E+00 -2.0945904888095E-01  1.7189850506044E+00
112  1.1100000000000E+00 -2.2687556268871E-01  1.6925379668252E+00
113  1.1200000000000E+00 -2.4225595064413E-01  1.6608407641844E+00
114  1.1300000000000E+00 -2.5562124328949E-01  1.6240452457350E+00
115  1.1400000000000E+00 -2.6700081314322E-01  1.5823381125033E+00
116  1.1500000000000E+00 -2.7643189964373E-01  1.5359396779201E+00
117  1.1600000000000E+00 -2.8395912799399E-01  1.4851024706062E+00
118  1.1700000000000E+00 -2.8963403569341E-01  1.4301097688665E+00
119  1.1800000000000E+00 -2.9351462007576E-01  1.3712741071806E+00
120  1.1900000000000E+00 -2.9566491921849E-01  1.3089357897276E+00
121  1.2000000000000E+00 -2.9615463710106E-01  1.2434614383376E+00
122  1.2100000000000E+00 -2.9505882183880E-01  1.1752425921159E+00
123  1.2200000000000E+00 -2.9245760312512E-01  1.1046943629811E+00
124  1.2300000000000E+00 -2.8843599168839E-01  1.0322541355752E+00
125  1.2400000000000E+00 -2.8308373951015E-01  9.5838028098736E-01
126  1.2500000000000E+00 -2.7649525474973E-01  8.8355083147191E-01
127  1.2600000000000E+00 -2.6876955975837E-01  8.0826203777158E-01
128  1.2700000000000E+00 -2.6001027411663E-01  7.3302670121162E-01
129  1.2800000000000E+00 -2.5032559735277E-01  6.5837213971329E-01
130  1.2900000000000E+00 -2.3982825781495E-01  5.8483760992463E-01
131  1.3000000000000E+00 -2.2863538497372E-01  5.1297096634154E-01
132  1.3100000000000E+00 -2.1686825227933E-01  4.4332429286045E-01
133  1.3200000000000E+00 -2.0465182653285E-01  3.7644819241953E-01
134  1.3300000000000E+00 -1.9211404737218E-01  3.1288436547064E-01