Tm    ONCVPSP-4.0.1  r_core=   2.00859   1.60017   1.90331   1.40285
69.0000     23.0000      250626    zatom,zion,pspd
8      11   3     4   600     0    pspcod,pspxc,lmax,lloc,mmax,r2well
5.99000000 49.00000000  0.00000000    rchrg fchrg qchrg
2     2     2     2     0    nproj
1     1           extension_switch
0                         9.7634946507708E+00  2.8553390147772E-01
1  0.0000000000000E+00  5.7306825951287E-11 -2.7460940119073E-10
2  1.0000000000000E-02  5.2438634567305E-02  1.4720936567562E-03
3  2.0000000000000E-02  1.0482167938760E-01  2.8773640620805E-03
4  3.0000000000000E-02  1.5709346956268E-01  4.1498241020867E-03
5  4.0000000000000E-02  2.0919819150692E-01  5.2251509194206E-03
6  5.0000000000000E-02  2.6107981262633E-01  6.0414980651002E-03
7  6.0000000000000E-02  3.1268201578414E-01  6.5402838741302E-03
8  7.0000000000000E-02  3.6394814008081E-01  6.6669484636385E-03
9  8.0000000000000E-02  4.1482112941905E-01  6.3716720268920E-03
10  9.0000000000000E-02  4.6524349025340E-01  5.6100474358588E-03
11  1.0000000000000E-01  5.1515725984035E-01  4.3437005661086E-03
12  1.1000000000000E-01  5.6450398620849E-01  2.5408522182381E-03
13  1.2000000000000E-01  6.1322472096037E-01  1.7681602518171E-04
14  1.3000000000000E-01  6.6126002589903E-01 -2.7655726985230E-03
15  1.4000000000000E-01  7.0854999434337E-01 -6.2956015957559E-03
16  1.5000000000000E-01  7.5503428785900E-01 -1.0414403169508E-02
17  1.6000000000000E-01  8.0065218898522E-01 -1.5114757031704E-02
18  1.7000000000000E-01  8.4534267038689E-01 -2.0380974858346E-02
19  1.8000000000000E-01  8.8904448070110E-01 -2.6188869661325E-02
20  1.9000000000000E-01  9.3169624718657E-01 -3.2505810220178E-02
21  2.0000000000000E-01  9.7323659511755E-01 -3.9290860735109E-02
22  2.1000000000000E-01  1.0136042836965E+00 -4.6495004975296E-02
23  2.2000000000000E-01  1.0527383580913E+00 -5.4061453408272E-02
24  2.3000000000000E-01  1.0905783170358E+00 -6.1926031014674E-02
25  2.4000000000000E-01  1.1270642952662E+00 -7.0017642724542E-02
26  2.5000000000000E-01  1.1621372599051E+00 -7.8258812661784E-02
27  2.6000000000000E-01  1.1957392197455E+00 -8.6566292662337E-02
28  2.7000000000000E-01  1.2278134462398E+00 -9.4851734840013E-02
29  2.8000000000000E-01  1.2583047048509E+00 -1.0302242232452E-01
30  2.9000000000000E-01  1.2871594952895E+00 -1.1098205168918E-01
31  3.0000000000000E-01  1.3143262990369E+00 -1.1863156003079E-01
32  3.1000000000000E-01  1.3397558324373E+00 -1.2586998916501E-01
33  3.2000000000000E-01  1.3634013035403E+00 -1.3259537896229E-01
34  3.3000000000000E-01  1.3852186707871E+00 -1.3870568147786E-01
35  3.4000000000000E-01  1.4051669015577E+00 -1.4409968722695E-01
36  3.5000000000000E-01  1.4232082285344E+00 -1.4867795472962E-01
37  3.6000000000000E-01  1.4393084017940E+00 -1.5234373429795E-01
38  3.7000000000000E-01  1.4534369345116E+00 -1.5500387696942E-01
39  3.8000000000000E-01  1.4655673401450E+00 -1.5656971950144E-01
40  3.9000000000000E-01  1.4756773589765E+00 -1.5695793643797E-01
41  4.0000000000000E-01  1.4837491719097E+00 -1.5609135043948E-01
42  4.1000000000000E-01  1.4897695994573E+00 -1.5389969233393E-01
43  4.2000000000000E-01  1.4937302839179E+00 -1.5032030269451E-01
44  4.3000000000000E-01  1.4956278528097E+00 -1.4529876718588E-01
45  4.4000000000000E-01  1.4954640617256E+00 -1.3878947843391E-01
46  4.5000000000000E-01  1.4932459148818E+00 -1.3075611776905E-01
47  4.6000000000000E-01  1.4889857617578E+00 -1.2117205086405E-01
48  4.7000000000000E-01  1.4827013683695E+00 -1.1002063202871E-01
49  4.8000000000000E-01  1.4744159618713E+00 -9.7295412734470E-02
50  4.9000000000000E-01  1.4641582473582E+00 -8.3000250813998E-02
51  5.0000000000000E-01  1.4519623959199E+00 -6.7149317708583E-02
52  5.1000000000000E-01  1.4378680031993E+00 -4.9767002114689E-02
53  5.2000000000000E-01  1.4219200179126E+00 -3.0887709401595E-02
54  5.3000000000000E-01  1.4041686400076E+00 -1.0555557226270E-02
55  5.4000000000000E-01  1.3846691883622E+00  1.1176031146355E-02
56  5.5000000000000E-01  1.3634819381564E+00  3.4244833211242E-02
57  5.6000000000000E-01  1.3406719282881E+00  5.8580429564799E-02
58  5.7000000000000E-01  1.3163087394445E+00  8.4104897402193E-02
59  5.8000000000000E-01  1.2904662436815E+00  1.1073358925743E-01
60  5.9000000000000E-01  1.2632223266032E+00  1.3837599000120E-01
61  6.0000000000000E-01  1.2346585834746E+00  1.6693664407487E-01
62  6.1000000000000E-01  1.2048599908337E+00  1.9631614393984E-01
63  6.2000000000000E-01  1.1739145553952E+00  2.2641216978365E-01
64  6.3000000000000E-01  1.1419129422605E+00  2.5712056964498E-01
65  6.4000000000000E-01  1.1089480846537E+00  2.8833646832167E-01
66  6.5000000000000E-01  1.0751147776033E+00  3.1995539271060E-01
67  6.6000000000000E-01  1.0405092581684E+00  3.5187440061182E-01
68  6.7000000000000E-01  1.0052287749746E+00  3.8399319952052E-01
69  6.8000000000000E-01  9.6937114997395E-01  4.1621524153669E-01
70  6.9000000000000E-01  9.3303433546661E-01  4.4844878025631E-01
71  7.0000000000000E-01  8.9631596953192E-01  4.8060787537582E-01
72  7.1000000000000E-01  8.5931293309576E-01  5.1261333075304E-01
73  7.2000000000000E-01  8.2212091192002E-01  5.4439355182815E-01
74  7.3000000000000E-01  7.8483396683062E-01  5.7588530862607E-01
75  7.4000000000000E-01  7.4754411550490E-01  6.0703439104133E-01
76  7.5000000000000E-01  7.1034092911443E-01  6.3779614375101E-01
77  7.6000000000000E-01  6.7331114706564E-01  6.6813586891764E-01
78  7.7000000000000E-01  6.3653831299701E-01  6.9802908583054E-01
79  7.8000000000000E-01  6.0010243507748E-01  7.2746163779314E-01
80  7.9000000000000E-01  5.6407967350578E-01  7.5642963789574E-01
81  8.0000000000000E-01  5.2854205793542E-01  7.8493924681482E-01
82  8.1000000000000E-01  4.9355723734360E-01  8.1300627744695E-01
83  8.2000000000000E-01  4.5918826462692E-01  8.4065562301568E-01
84  8.3000000000000E-01  4.2549341794130E-01  8.6792050727243E-01
85  8.4000000000000E-01  3.9252606051001E-01  8.9484155754372E-01
86  8.5000000000000E-01  3.6033454030355E-01  9.2146570363901E-01
87  8.6000000000000E-01  3.2896213064842E-01  9.4784490802632E-01
88  8.7000000000000E-01  2.9844701245278E-01  9.7403473517560E-01
89  8.8000000000000E-01  2.6882229834493E-01  1.0000927705636E+00
90  8.9000000000000E-01  2.4011609861042E-01  1.0260769024959E+00
91  9.0000000000000E-01  2.1235162838614E-01  1.0520434826215E+00
92  9.1000000000000E-01  1.8554735512895E-01  1.0780453837647E+00
93  9.2000000000000E-01  1.5971718492530E-01  1.1041299764535E+00
94  9.3000000000000E-01  1.3487068575031E-01  1.1303370482596E+00
95  9.4000000000000E-01  1.1101334532378E-01  1.1566966927463E+00
96  9.5000000000000E-01  8.8146860750819E-02  1.1832271974231E+00
97  9.6000000000000E-01  6.6269456680301E-02  1.2099329625836E+00
98  9.7000000000000E-01  4.5376228270797E-02  1.2368024852318E+00
99  9.8000000000000E-01  2.5459504824140E-02  1.2638064444308E+00
100  9.9000000000000E-01  6.5092295390001E-03  1.2908959262951E+00
101  1.0000000000000E+00 -1.1486649545885E-02  1.3180008284568E+00
102  1.0100000000000E+00 -2.8541782699383E-02  1.3450284850988E+00
103  1.0200000000000E+00 -4.4671021329828E-02  1.3718625545360E+00
104  1.0300000000000E+00 -5.9890026362466E-02  1.3983622117600E+00
105  1.0400000000000E+00 -7.4214888240895E-02  1.4243616882987E+00
106  1.0500000000000E+00 -8.7661764790086E-02  1.4496702011112E+00
107  1.0600000000000E+00 -1.0024654327229E-01  1.4740723109755E+00
108  1.0700000000000E+00 -1.1198453298786E-01  1.4973287488570E+00
109  1.0800000000000E+00 -1.2289019471278E-01  1.5191777459941E+00
110  1.0900000000000E+00 -1.3297691311582E-01  1.5393368998330E+00
111  1.1000000000000E+00 -1.4225681805060E-01  1.5575056033858E+00
112  1.1100000000000E+00 -1.5074066026427E-01  1.5733680599937E+00
113  1.1200000000000E+00 -1.5843774659450E-01  1.5865968987613E+00
114  1.1300000000000E+00 -1.6535593912954E-01  1.5968573979636E+00
115  1.1400000000000E+00 -1.7150172207471E-01  1.6038123144464E+00
116  1.1500000000000E+00 -1.7688033918722E-01  1.6071273062710E+00
117  1.1600000000000E+00 -1.8149600360471E-01  1.6064769235526E+00
118  1.1700000000000E+00 -1.8535218068251E-01  1.6015511283902E+00
119  1.1800000000000E+00 -1.8845194306408E-01  1.5920622889308E+00
120  1.1900000000000E+00 -1.9079839562171E-01  1.5777525747633E+00
121  1.2000000000000E+00 -1.9239516610409E-01  1.5584016608110E+00
122  1.2100000000000E+00 -1.9324695531194E-01  1.5338346246826E+00
123  1.2200000000000E+00 -1.9336013835038E-01  1.5039298975654E+00
124  1.2300000000000E+00 -1.9274340600031E-01  1.4686271014663E+00
125  1.2400000000000E+00 -1.9140843245105E-01  1.4279345752627E+00
126  1.2500000000000E+00 -1.8937055255135E-01  1.3819363587049E+00
127  1.2600000000000E+00 -1.8664942835509E-01  1.3307983671000E+00
128  1.2700000000000E+00 -1.8326968099368E-01  1.2747734491505E+00
129  1.2800000000000E+00 -1.7926145983693E-01  1.2142049767326E+00
130  1.2900000000000E+00 -1.7466091645908E-01  1.1495285677345E+00
131  1.3000000000000E+00 -1.6951054605320E-01  1.0812714908518E+00
132  1.3100000000000E+00 -1.6385935366163E-01  1.0100492447426E+00
133  1.3200000000000E+00 -1.5776279687734E-01  9.3655874276599E-01
134  1.3300000000000E+00 -1.5128245042494E-01  8.6156746767043E-01
135  1.3400000000000E+00 -1.4448533132198E-01  7.8589788877404E-01
136  1.3500000000000E+00 -1.3744281604652E-01  7.1040635630583E-01
137  1.3600000000000E+00 -1.3022907330183E-01  6.3595560368013E-01
138  1.3700000000000E+00 -1.2291892748425E-01  5.6337989763018E-01
139  1.3800000000000E+00 -1.1558505814370E-01  4.9344176632264E-01
140  1.3900000000000E+00 -1.0829442910673E-01  4.2677910366011E-01
141  1.4000000000000E+00 -1.0110389835289E-01  3.6384246782597E-01
142  1.4100000000000E+00 -9.4054789885806E-02  3.0481966026625E-01
143  1.4200000000000E+00 -8.7174166105555E-02  2.4967881889681E-01
144  1.4300000000000E+00 -8.0484017566640E-02  1.9833776084791E-01
145  1.4400000000000E+00 -7.4003786791212E-02  1.5070796089991E-01
146  1.4500000000000E+00 -6.7750367386669E-02  1.0669372316440E-01
147  1.4600000000000E+00 -6.1738205037031E-02  6.6193021056074E-02
148  1.4700000000000E+00 -5.5979391601169E-02  2.9098115028261E-02
149  1.4800000000000E+00 -5.0483764481239E-02 -4.7038287769171E-03
150  1.4900000000000E+00 -4.5259010381700E-02 -3.5330124747820E-02
151  1.5000000000000E+00 -4.0310772795949E-02 -6.2901961055166E-02
152  1.5100000000000E+00 -3.5642762398276E-02 -8.7543804598869E-02
153  1.5200000000000E+00 -3.1256870069887E-02 -1.0938281414694E-01
154  1.5300000000000E+00 -2.7153281397058E-02 -1.2854827163788E-01
155  1.5400000000000E+00 -2.3330591744210E-02 -1.4517103786636E-01
156  1.5500000000000E+00 -1.9785923195826E-02 -1.5938300613886E-01
157  1.5600000000000E+00 -1.6515039936487E-02 -1.7131659847046E-01
158  1.5700000000000E+00 -1.3512463855116E-02 -1.8110427108770E-01
159  1.5800000000000E+00 -1.0771588778927E-02 -1.8887804686784E-01
160  1.5900000000000E+00 -8.2847931659943E-03 -1.9476907135824E-01
161  1.6000000000000E+00 -6.0435507902783E-03 -1.9890719377494E-01
162  1.6100000000000E+00 -4.0385390305333E-03 -2.0142057355862E-01
163  1.6200000000000E+00 -2.2597443898052E-03 -2.0243531317230E-01
164  1.6300000000000E+00 -6.9656494904091E-04 -2.0207511708292E-01
165  1.6400000000000E+00  6.6209054216770E-04 -2.0046097721276E-01
166  1.6500000000000E+00  1.8277071901605E-03 -1.9771088485909E-01
167  1.6600000000000E+00  2.8120722886526E-03 -1.9393956858302E-01
168  1.6700000000000E+00  3.6271876538180E-03 -1.8925825796916E-01
169  1.6800000000000E+00  4.2851860870668E-03 -1.8377447249607E-01
170  1.6900000000000E+00  4.7982520916549E-03 -1.7759183510367E-01
171  1.7000000000000E+00  5.1785469010412E-03 -1.7080990944098E-01
172  1.7100000000000E+00  5.4381378746430E-03 -1.6352406004917E-01
173  1.7200000000000E+00  5.5889322840274E-03 -1.5582533458687E-01
174  1.7300000000000E+00  5.6426154633646E-03 -1.4780036683746E-01
175  1.7400000000000E+00  5.6105932976749E-03 -1.3953129949644E-01
176  1.7500000000000E+00  5.5039389912781E-03 -1.3109572557772E-01
177  1.7600000000000E+00  5.3333440023046E-03 -1.2256664678824E-01
178  1.7700000000000E+00  5.1090734642564E-03 -1.1401245291461E-01
179  1.7800000000000E+00  4.8409238313764E-03 -1.0549689391977E-01
180  1.7900000000000E+00  4.5381880763646E-03 -9.7079112208766E-02
181  1.8000000000000E+00  4.2096203874991E-03 -8.8813634240275E-02
182  1.8100000000000E+00  3.8634067160227E-03 -8.0750402094689E-02
183  1.8200000000000E+00  3.5071385302453E-03 -7.2934812559572E-02
184  1.8300000000000E+00  3.1477892161358E-03 -6.5407757609709E-02
185  1.8400000000000E+00  2.7916937788269E-03 -5.8205675545889E-02
186  1.8500000000000E+00  2.4445312921914E-03 -5.1360606943245E-02
187  1.8600000000000E+00  2.1113099904767E-03 -4.4900255246813E-02
188  1.8700000000000E+00  1.7963550781266E-03 -3.8848053439111E-02
189  1.8800000000000E+00  1.5032975712177E-03 -3.3223220858372E-02
190  1.8900000000000E+00  1.2350621847073E-03 -2.8040791737086E-02
191  1.9000000000000E+00  9.9389167291023E-04 -2.3311979278426E-02
192  1.9100000000000E+00  7.8108693599991E-04 -1.9041753133874E-02
193  1.9200000000000E+00  5.9536687987630E-04 -1.5212483454948E-02
194  1.9300000000000E+00  4.3612366207588E-04 -1.1816199051484E-02
195  1.9400000000000E+00  3.0415010358991E-04 -8.8621458591994E-03
196  1.9500000000000E+00  1.9901720590941E-04 -6.3510805530693E-03
197  1.9600000000000E+00  1.1945740733752E-04 -4.2789855570832E-03
198  1.9700000000000E+00  6.3321483036457E-05 -2.6366251589678E-03
199  1.9800000000000E+00  2.7589759373857E-05 -1.4101304554656E-03
200  1.9900000000000E+00  8.4002331001297E-06 -5.7575597257632E-04
201  2.0000000000000E+00  1.0856640460221E-06 -1.2618202650308E-04
202  2.0100000000000E+00 -2.5811924421917E-08  6.2256670772074E-06
203  2.0200000000000E+00 -2.9494182219514E-10  1.1986206616658E-06
204  2.03  0. -0.
205  2.04 -0.  0.
206  2.05 -0. -0.
207  2.06  0.  0.
208  2.07  0.  0.
209  2.08  0.  0.
210  2.09  0.  0.
211  2.10  0.  0.
212  2.11  0.  0.
213  2.12  0.  0.
214  2.13  0.  0.
215  2.14  0.  0.
216  2.15  0.  0.
217  2.16  0.  0.
218  2.17  0.  0.
219  2.18  0.  0.
220  2.19  0.  0.
221  2.20  0.  0.
222  2.21  0.  0.
223  2.22  0.  0.
224  2.23  0.  0.
225  2.24  0.  0.
226  2.25  0.  0.
227  2.26  0.  0.
228  2.27  0.  0.
229  2.28  0.  0.
230  2.29  0.  0.
231  2.30  0.  0.
232  2.31  0.  0.
233  2.32  0.  0.
234  2.33  0.  0.
235  2.34  0.  0.
236  2.35  0.  0.
237  2.36  0.  0.
238  2.37  0.  0.
239  2.38  0.  0.
240  2.39  0.  0.
241  2.40  0.  0.
242  2.41  0.  0.
243  2.42  0.  0.
244  2.43  0.  0.
245  2.44  0.  0.
246  2.45  0.  0.
247  2.46  0.  0.
248  2.47  0.  0.
249  2.48  0.  0.
250  2.49  0.  0.
251  2.50  0.  0.
252  2.51  0.  0.
253  2.52  0.  0.
254  2.53  0.  0.
255  2.54  0.  0.
256  2.55  0.  0.
257  2.56  0.  0.
258  2.57  0.  0.
259  2.58  0.  0.
260  2.59  0.  0.
261  2.60  0.  0.
262  2.61  0.  0.
263  2.62  0.  0.
264  2.63  0.  0.
265  2.64  0.  0.
266  2.65  0.  0.
267  2.66  0.  0.
268  2.67  0.  0.
269  2.68  0.  0.
270  2.69  0.  0.
271  2.70  0.  0.
272  2.71  0.  0.
273  2.72  0.  0.
274  2.73  0.  0.
275  2.74  0.  0.
276  2.75  0.  0.
277  2.76  0.  0.
278  2.77  0.  0.
279  2.78  0.  0.
280  2.79  0.  0.
281  2.80  0.  0.
282  2.81  0.  0.
283  2.82  0.  0.
284  2.83  0.  0.
285  2.84  0.  0.
286  2.85  0.  0.
287  2.86  0.  0.
288  2.87  0.  0.
289  2.88  0.  0.
290  2.89  0.  0.
291  2.90  0.  0.
292  2.91  0.  0.
293  2.92  0.  0.
294  2.93  0.  0.
295  2.94  0.  0.
296  2.95  0.  0.
297  2.96  0.  0.
298  2.97  0.  0.
299  2.98  0.  0.
300  2.99  0.  0.
301  3.00  0.  0.
302  3.01  0.  0.
303  3.02  0.  0.
304  3.03  0.  0.
305  3.04  0.  0.
306  3.05  0.  0.
307  3.06  0.  0.
308  3.07  0.  0.
309  3.08  0.  0.
310  3.09  0.  0.
311  3.10  0.  0.
312  3.11  0.  0.
313  3.12  0.  0.
314  3.13  0.  0.
315  3.14  0.  0.
316  3.15  0.  0.
317  3.16  0.  0.
318  3.17  0.  0.
319  3.18  0.  0.
320  3.19  0.  0.
321  3.20  0.  0.
322  3.21  0.  0.
323  3.22  0.  0.
324  3.23  0.  0.
325  3.24  0.  0.
326  3.25  0.  0.
327  3.26  0.  0.
328  3.27  0.  0.
329  3.28  0.  0.
330  3.29  0.  0.
331  3.30  0.  0.
332  3.31  0.  0.
333  3.32  0.  0.
334  3.33  0.  0.
335  3.34  0.  0.
336  3.35  0.  0.
337  3.36  0.  0.
338  3.37  0.  0.
339  3.38  0.  0.
340  3.39  0.  0.
341  3.40  0.  0.
342  3.41  0.  0.
343  3.42  0.  0.
344  3.43  0.  0.
345  3.44  0.  0.
346  3.45  0.  0.
347  3.46  0.  0.
348  3.47  0.  0.
349  3.48  0.  0.
350  3.49  0.  0.
351  3.50  0.  0.
352  3.51  0.  0.
353  3.52  0.  0.
354  3.53  0.  0.
355  3.54  0.  0.
356  3.55  0.  0.
357  3.56  0.  0.
358  3.57  0.  0.
359  3.58  0.  0.
360  3.59  0.  0.
361  3.60  0.  0.
362  3.61  0.  0.
363  3.62  0.  0.
364  3.63  0.  0.
365  3.64  0.  0.
366  3.65  0.  0.
367  3.66  0.  0.
368  3.67  0.  0.
369  3.68  0.  0.
370  3.69  0.  0.
371  3.70  0.  0.
372  3.71  0.  0.
373  3.72  0.  0.
374  3.73  0.  0.
375  3.74  0.  0.
376  3.75  0.  0.
377  3.76  0.  0.
378  3.77  0.  0.
379  3.78  0.  0.
380  3.79  0.  0.
381  3.80  0.  0.
382  3.81  0.  0.
383  3.82  0.  0.
384  3.83  0.  0.
385  3.84  0.  0.
386  3.85  0.  0.
387  3.86  0.  0.
388  3.87  0.  0.
389  3.88  0.  0.
390  3.89  0.  0.
391  3.90  0.  0.
392  3.91  0.  0.
393  3.92  0.  0.
394  3.93  0.  0.
395  3.94  0.  0.
396  3.95  0.  0.
397  3.96  0.  0.
398  3.97  0.  0.
399  3.98  0.  0.
400  3.99  0.  0.
401  4.00  0.  0.
402  4.01  0.  0.
403  4.02  0.  0.
404  4.03  0.  0.
405  4.04  0.  0.
406  4.05  0.  0.
407  4.06  0.  0.
408  4.07  0.  0.
409  4.08  0.  0.
410  4.09  0.  0.
411  4.10  0.  0.
412  4.11  0.  0.
413  4.12  0.  0.
414  4.13  0.  0.
415  4.14  0.  0.
416  4.15  0.  0.
417  4.16  0.  0.
418  4.17  0.  0.
419  4.18  0.  0.
420  4.19  0.  0.
421  4.20  0.  0.
422  4.21  0.  0.
423  4.22  0.  0.
424  4.23  0.  0.
425  4.24  0.  0.
426  4.25  0.  0.
427  4.26  0.  0.
428  4.27  0.  0.
429  4.28  0.  0.
430  4.29  0.  0.
431  4.30  0.  0.
432  4.31  0.  0.
433  4.32  0.  0.
434  4.33  0.  0.
435  4.34  0.  0.
436  4.35  0.  0.
437  4.36  0.  0.
438  4.37  0.  0.
439  4.38  0.  0.
440  4.39  0.  0.
441  4.40  0.  0.
442  4.41  0.  0.
443  4.42  0.  0.
444  4.43  0.  0.
445  4.44  0.  0.
446  4.45  0.  0.
447  4.46  0.  0.
448  4.47  0.  0.
449  4.48  0.  0.
450  4.49  0.  0.
451  4.50  0.  0.
452  4.51  0.  0.
453  4.52  0.  0.
454  4.53  0.  0.
455  4.54  0.  0.
456  4.55  0.  0.
457  4.56  0.  0.
458  4.57  0.  0.
459  4.58  0.  0.
460  4.59  0.  0.
461  4.60  0.  0.
462  4.61  0.  0.
463  4.62  0.  0.
464  4.63  0.  0.
465  4.64  0.  0.
466  4.65  0.  0.
467  4.66  0.  0.
468  4.67  0.  0.
469  4.68  0.  0.
470  4.69  0.  0.
471  4.70  0.  0.
472  4.71  0.  0.
473  4.72  0.  0.
474  4.73  0.  0.
475  4.74  0.  0.
476  4.75  0.  0.
477  4.76  0.  0.
478  4.77  0.  0.
479  4.78  0.  0.
480  4.79  0.  0.
481  4.80  0.  0.
482  4.81  0.  0.
483  4.82  0.  0.
484  4.83  0.  0.
485  4.84  0.  0.
486  4.85  0.  0.
487  4.86  0.  0.
488  4.87  0.  0.
489  4.88  0.  0.
490  4.89  0.  0.
491  4.90  0.  0.
492  4.91  0.  0.
493  4.92  0.  0.
494  4.93  0.  0.
495  4.94  0.  0.
496  4.95  0.  0.
497  4.96  0.  0.
498  4.97  0.  0.
499  4.98  0.  0.
500  4.99  0.  0.
501  5.00  0.  0.
502  5.01  0.  0.
503  5.02  0.  0.
504  5.03  0.  0.
505  5.04  0.  0.
506  5.05  0.  0.
507  5.06  0.  0.
508  5.07  0.  0.
509  5.08  0.  0.
510  5.09  0.  0.
511  5.10  0.  0.
512  5.11  0.  0.
513  5.12  0.  0.
514  5.13  0.  0.
515  5.14  0.  0.
516  5.15  0.  0.
517  5.16  0.  0.
518  5.17  0.  0.
519  5.18  0.  0.
520  5.19  0.  0.
521  5.20  0.  0.
522  5.21  0.  0.
523  5.22  0.  0.
524  5.23  0.  0.
525  5.24  0.  0.
526  5.25  0.  0.
527  5.26  0.  0.
528  5.27  0.  0.
529  5.28  0.  0.
530  5.29  0.  0.
531  5.30  0.  0.
532  5.31  0.  0.
533  5.32  0.  0.
534  5.33  0.  0.
535  5.34  0.  0.
536  5.35  0.  0.
537  5.36  0.  0.
538  5.37  0.  0.
539  5.38  0.  0.
540  5.39  0.  0.
541  5.40  0.  0.
542  5.41  0.  0.
543  5.42  0.  0.
544  5.43  0.  0.
545  5.44  0.  0.
546  5.45  0.  0.
547  5.46  0.  0.
548  5.47  0.  0.
549  5.48  0.  0.
550  5.49  0.  0.
551  5.50  0.  0.
552  5.51  0.  0.
553  5.52  0.  0.
554  5.53  0.  0.
555  5.54  0.  0.
556  5.55  0.  0.
557  5.56  0.  0.
558  5.57  0.  0.
559  5.58  0.  0.
560  5.59  0.  0.
561  5.60  0.  0.
562  5.61  0.  0.
563  5.62  0.  0.
564  5.63  0.  0.
565  5.64  0.  0.
566  5.65  0.  0.
567  5.66  0.  0.
568  5.67  0.  0.
569  5.68  0.  0.
570  5.69  0.  0.
571  5.70  0.  0.
572  5.71  0.  0.
573  5.72  0.  0.
574  5.73  0.  0.
575  5.74  0.  0.
576  5.75  0.  0.
577  5.76  0.  0.
578  5.77  0.  0.
579  5.78  0.  0.
580  5.79  0.  0.
581  5.80  0.  0.
582  5.81  0.  0.
583  5.82  0.  0.
584  5.83  0.  0.
585  5.84  0.  0.
586  5.85  0.  0.
587  5.86  0.  0.
588  5.87  0.  0.
589  5.88  0.  0.
590  5.89  0.  0.
591  5.90  0.  0.
592  5.91  0.  0.
593  5.92  0.  0.
594  5.93  0.  0.
595  5.94  0.  0.
596  5.95  0.  0.
597  5.96  0.  0.
598  5.97  0.  0.
599  5.98  0.  0.
600  5.99  0.  0.
1                         7.6538929174010E+00  1.7523321211047E-01
1  0.0000000000000E+00 -2.0112235488146E-10  4.1779509088458E-09
2  1.0000000000000E-02  1.3866443046959E-03  9.0247221003811E-04
3  2.0000000000000E-02  5.5420943764495E-03  3.5977959907597E-03
4  3.0000000000000E-02  1.2452909016149E-02  8.0498557234423E-03
5  4.0000000000000E-02  2.2096710774777E-02  1.4198999422039E-02
6  5.0000000000000E-02  3.4442223206031E-02  2.1962841486236E-02
7  6.0000000000000E-02  4.9449323866314E-02  3.1237370062996E-02
8  7.0000000000000E-02  6.7069113884538E-02  4.1898342836878E-02
9  8.0000000000000E-02  8.7244005125285E-02  5.3802950891496E-02
10  9.0000000000000E-02  1.0990782614572E-01  6.6791726425199E-02
11  1.0000000000000E-01  1.3498594829412E-01  8.0690666631175E-02
12  1.1000000000000E-01  1.6239543341269E-01  9.5313543011938E-02
13  1.2000000000000E-01  1.9204520468486E-01  1.1046436284474E-01
14  1.3000000000000E-01  2.2383624220644E-01  1.2593994748147E-01
15  1.4000000000000E-01  2.5766180485633E-01  1.4153259068622E-01
16  1.5000000000000E-01  2.9340767999717E-01  1.5703275930783E-01
17  1.6000000000000E-01  3.3095246244629E-01  1.7223179826263E-01
18  1.7000000000000E-01  3.7016786402486E-01  1.8692460206796E-01
19  1.8000000000000E-01  4.1091905481725E-01  2.0091221601154E-01
20  1.9000000000000E-01  4.5306503705650E-01  2.1400433144823E-01
21  2.0000000000000E-01  4.9645905229692E-01  2.2602164165724E-01
22  2.1000000000000E-01  5.4094902224469E-01  2.3679802713523E-01
23  2.2000000000000E-01  5.8637802329572E-01  2.4618254210047E-01
24  2.3000000000000E-01  6.3258479448098E-01  2.5404117728908E-01
25  2.4000000000000E-01  6.7940427814841E-01  2.6025837778182E-01
26  2.5000000000000E-01  7.2666819232216E-01  2.6473829854279E-01
27  2.6000000000000E-01  7.7420563328046E-01  2.6740578451823E-01
28  2.7000000000000E-01  8.2184370648839E-01  2.6820706645984E-01
29  2.8000000000000E-01  8.6940818361793E-01  2.6711016803371E-01
30  2.9000000000000E-01  9.1672418299000E-01  2.6410502418122E-01
31  3.0000000000000E-01  9.6361687038971E-01  2.5920331503607E-01
32  3.1000000000000E-01  1.0099121768406E+00  2.5243802390828E-01
33  3.2000000000000E-01  1.0554375295843E+00  2.4386273184758E-01
34  3.3000000000000E-01  1.1000225922009E+00  2.3355066503704E-01
35  3.4000000000000E-01  1.1435000095350E+00  2.2159351468230E-01
36  3.5000000000000E-01  1.1857061528530E+00  2.0810005210061E-01
37  3.6000000000000E-01  1.2264818604728E+00  1.9319456433477E-01
38  3.7000000000000E-01  1.2656731689617E+00  1.7701513777768E-01
39  3.8000000000000E-01  1.3031320299073E+00  1.5971181897038E-01
40  3.9000000000000E-01  1.3387170072263E+00  1.4144468290508E-01
41  4.0000000000000E-01  1.3722939499908E+00  1.2238183981650E-01
42  4.1000000000000E-01  1.4037366358177E+00  1.0269741157604E-01
43  4.2000000000000E-01  1.4329273799915E+00  8.2569508421194E-02
44  4.3000000000000E-01  1.4597576056619E+00  6.2178235874335E-02
45  4.4000000000000E-01  1.4841283706858E+00  4.1703760349538E-02
46  4.5000000000000E-01  1.5059508469553E+00  2.1324460154834E-02
47  4.6000000000000E-01  1.5251467483744E+00  1.2151863978000E-03
48  4.7000000000000E-01  1.5416487040069E+00 -1.8454344248915E-02
49  4.8000000000000E-01  1.5554005733178E+00 -3.7521005823891E-02
50  4.9000000000000E-01  1.5663577008603E+00 -5.5829552404941E-02
51  5.0000000000000E-01  1.5744871082224E+00 -7.3233727796215E-02
52  5.1000000000000E-01  1.5797676215252E+00 -8.9597186306404E-02
53  5.2000000000000E-01  1.5821899332659E+00 -1.0479421884399E-01
54  5.3000000000000E-01  1.5817565978071E+00 -1.1871028204869E-01
55  5.4000000000000E-01  1.5784819603267E+00 -1.3124233161605E-01
56  5.5000000000000E-01  1.5723920195606E+00 -1.4229896429102E-01
57  5.6000000000000E-01  1.5635242251750E+00 -1.5180037615366E-01
58  5.7000000000000E-01  1.5519272111057E+00 -1.5967814774324E-01
59  5.8000000000000E-01  1.5376604666796E+00 -1.6587486921938E-01
60  5.9000000000000E-01  1.5207939477976E+00 -1.7034362110541E-01
61  6.0000000000000E-01  1.5014076308905E+00 -1.7304732816062E-01
62  6.1000000000000E-01  1.4795910127695E+00 -1.7395800556435E-01
63  6.2000000000000E-01  1.4554425598655E+00 -1.7305591784732E-01
64  6.3000000000000E-01  1.4290691106939E+00 -1.7032867186139E-01
65  6.4000000000000E-01  1.4005852356870E+00 -1.6577026554067E-01
66  6.5000000000000E-01  1.3701125588001E+00 -1.5938011427819E-01
67  6.6000000000000E-01  1.3377790455271E+00 -1.5116207643440E-01
68  6.7000000000000E-01  1.3037182621499E+00 -1.4112349883332E-01
69  6.8000000000000E-01  1.2680686111944E+00 -1.2927430210708E-01
70  6.9000000000000E-01  1.2309725481756E+00 -1.1562612446133E-01
71  7.0000000000000E-01  1.1925757847890E+00 -1.0019154088130E-01
72  7.1000000000000E-01  1.1530264837405E+00 -8.2983373027895E-02
73  7.2000000000000E-01  1.1124744504076E+00 -6.4014103124775E-02
74  7.3000000000000E-01  1.0710703264957E+00 -4.3295403058228E-02
75  7.4000000000000E-01  1.0289647907864E+00 -2.0837787743959E-02
76  7.5000000000000E-01  9.8630777198787E-01  3.3496003922634E-03
77  7.6000000000000E-01  9.4324767857296E-01  2.9259071182331E-02
78  7.7000000000000E-01  8.9993065035215E-01  5.6884328260659E-02
79  7.8000000000000E-01  8.5649983635709E-01  8.6220272008678E-02
80  7.9000000000000E-01  8.1309470342503E-01  1.1726266550344E-01
81  8.0000000000000E-01  7.6985037966436E-01  1.5000766693131E-01
82  8.1000000000000E-01  7.2689703675545E-01  1.8445123362528E-01
83  8.2000000000000E-01  6.8435931479565E-01  2.2058840442661E-01
84  8.3000000000000E-01  6.4235579313586E-01  2.5841246843802E-01
85  8.4000000000000E-01  6.0099851037721E-01  2.9791402943969E-01
86  8.5000000000000E-01  5.6039253640122E-01  3.3907997628316E-01
87  8.6000000000000E-01  5.2063559899446E-01  3.8189237047892E-01
88  8.7000000000000E-01  4.8181776729904E-01  4.2632726297379E-01
89  8.8000000000000E-01  4.4402119397227E-01  4.7235345279866E-01
90  8.9000000000000E-01  4.0731991757225E-01  5.1993120088881E-01
91  9.0000000000000E-01  3.7177972629922E-01  5.6901091297023E-01
92  9.1000000000000E-01  3.3745808381537E-01  6.1953180600781E-01
93  9.2000000000000E-01  3.0440411743689E-01  6.7142057335302E-01
94  9.3000000000000E-01  2.7265866854111E-01  7.2459006445826E-01
95  9.4000000000000E-01  2.4225440455838E-01  7.7893799586469E-01
96  9.5000000000000E-01  2.1321599142305E-01  8.3434571115835E-01
97  9.6000000000000E-01  1.8556032484027E-01  8.9067700874654E-01
98  9.7000000000000E-01  1.5929681818846E-01  9.4777705764649E-01
99  9.8000000000000E-01  1.3442774432073E-01  1.0054714230136E+00
100  9.9000000000000E-01  1.1094862795676E-01  1.0635652248619E+00
101  1.0000000000000E+00  8.8848684772366E-02  1.1218424553216E+00
102  1.0100000000000E+00  6.8111302702214E-02  1.1800654818187E+00
103  1.0200000000000E+00  4.8714560376723E-02  1.2379747656983E+00
104  1.0300000000000E+00  3.0631777024473E-02  1.2952888279782E+00
105  1.0400000000000E+00  1.3832087594087E-02  1.3517044960508E+00
106  1.0500000000000E+00 -1.7189637070605E-03  1.4068974671302E+00
107  1.0600000000000E+00 -1.6058818785218E-02  1.4605232259711E+00
108  1.0700000000000E+00 -2.9227297753667E-02  1.5122183557171E+00
109  1.0800000000000E+00 -4.1265995985243E-02  1.5616022815209E+00
110  1.0900000000000E+00 -5.2217694719716E-02  1.6082794866407E+00
111  1.1000000000000E+00 -6.2125794096996E-02  1.6518422398633E+00
112  1.1100000000000E+00 -7.1033777661190E-02  1.6918738711144E+00
113  1.1200000000000E+00 -7.8984717438203E-02  1.7279526287796E+00
114  1.1300000000000E+00 -8.6020828610736E-02  1.7596561472815E+00
115  1.1400000000000E+00 -9.2183082581876E-02  1.7865665466395E+00
116  1.1500000000000E+00 -9.7510886807937E-02  1.8082761766996E+00
117  1.1600000000000E+00 -1.0204183917685E-01  1.8243940072724E+00
118  1.1700000000000E+00 -1.0581156388019E-01  1.8345526511133E+00
119  1.1800000000000E+00 -1.0885363465949E-01  1.8384159893076E+00
120  1.1900000000000E+00 -1.1119958997006E-01  1.8356873477479E+00
121  1.2000000000000E+00 -1.1287904297262E-01  1.8261181486360E+00
122  1.2100000000000E+00 -1.1391988732004E-01  1.8095169321116E+00
123  1.2200000000000E+00 -1.1434859739797E-01  1.7857586093946E+00
124  1.2300000000000E+00 -1.1419061901783E-01  1.7547937704358E+00
125  1.2400000000000E+00 -1.1347084347387E-01  1.7166578249213E+00
126  1.2500000000000E+00 -1.1221415435787E-01  1.6714797055140E+00
127  1.2600000000000E+00 -1.1044603255971E-01  1.6194898061920E+00
128  1.2700000000000E+00 -1.0819320037451E-01  1.5610267651433E+00
129  1.2800000000000E+00 -1.0548428062673E-01  1.4965426314163E+00
130  1.2900000000000E+00 -1.0235044114071E-01  1.4266058764946E+00
131  1.3000000000000E+00 -9.8825988659808E-02  1.3519016250586E+00
132  1.3100000000000E+00 -9.4948869469083E-02  1.2732283838229E+00
133  1.3200000000000E+00 -9.0761026459197E-02  1.1914904427759E+00
134  1.3300000000000E+00 -8.6308554049764E-02  1.1076850075750E+00