La    ONCVPSP-4.0.1  r_core=   2.10627   1.60918   1.85761   1.65804
57.0000     11.0000      250626    zatom,zion,pspd
8      11   3     4   600     0    pspcod,pspxc,lmax,lloc,mmax,r2well
5.99000000  3.80000000  0.00000000    rchrg fchrg qchrg
2     2     2     2     0    nproj
1     1           extension_switch
0                         6.5335735800723E+00  5.8209971926261E-01
1  0.0000000000000E+00  4.7793630164605E-11 -1.6521109827417E-10
2  1.0000000000000E-02  2.9076420649393E-02 -2.0120046273178E-03
3  2.0000000000000E-02  5.8156462731047E-02 -4.0629566606400E-03
4  3.0000000000000E-02  8.7243571732794E-02 -6.1913348740737E-03
5  4.0000000000000E-02  1.1634084274416E-01 -8.4346853008717E-03
6  5.0000000000000E-02  1.4545084897138E-01 -1.0829166128134E-02
7  6.0000000000000E-02  1.7457547467540E-01 -1.3409105991760E-02
8  7.0000000000000E-02  2.0371575395066E-01 -1.6206579943050E-02
9  8.0000000000000E-02  2.3287171671481E-01 -1.9251007193135E-02
10  9.0000000000000E-02  2.6204224322030E-01 -2.2568774537680E-02
11  1.0000000000000E-01  2.9122492832933E-01 -2.6182889123872E-02
12  1.1000000000000E-01  3.2041595671335E-01 -3.0112663946688E-02
13  1.2000000000000E-01  3.4960999004947E-01 -3.4373439154425E-02
14  1.3000000000000E-01  3.7880006718732E-01 -3.8976341906955E-02
15  1.4000000000000E-01  4.0797751815445E-01 -4.3928087167517E-02
16  1.5000000000000E-01  4.3713189275461E-01 -4.9230821423062E-02
17  1.6000000000000E-01  4.6625090439432E-01 -5.4882010922819E-02
18  1.7000000000000E-01  4.9532038964840E-01 -6.0874375603481E-02
19  1.8000000000000E-01  5.2432428394646E-01 -6.7195869436306E-02
20  1.9000000000000E-01  5.5324461363091E-01 -7.3829707489703E-02
21  2.0000000000000E-01  5.8206150450293E-01 -8.0754439555811E-02
22  2.1000000000000E-01  6.1075320683864E-01 -8.7944069743735E-02
23  2.2000000000000E-01  6.3929613672314E-01 -9.5368221001155E-02
24  2.3000000000000E-01  6.6766493341729E-01 -1.0299234309265E-01
25  2.4000000000000E-01  6.9583253234145E-01 -1.1077796214252E-01
26  2.5000000000000E-01  7.2377025313360E-01 -1.1868296944528E-01
27  2.6000000000000E-01  7.5144790211699E-01 -1.2666194686238E-01
28  2.7000000000000E-01  7.7883388839555E-01 -1.3466652576332E-01
29  2.8000000000000E-01  8.0589535268574E-01 -1.4264577613540E-01
30  2.9000000000000E-01  8.3259830789056E-01 -1.5054662218366E-01
31  3.0000000000000E-01  8.5890779032780E-01 -1.5831428047296E-01
32  3.1000000000000E-01  8.8478802043953E-01 -1.6589271643072E-01
33  3.2000000000000E-01  9.1020257173512E-01 -1.7322511483410E-01
34  3.3000000000000E-01  9.3511454665568E-01 -1.8025435975178E-01
35  3.4000000000000E-01  9.5948675799453E-01 -1.8692351929805E-01
36  3.5000000000000E-01  9.8328191446694E-01 -1.9317633048979E-01
37  3.6000000000000E-01  1.0064628089923E+00 -1.9895767947329E-01
38  3.7000000000000E-01  1.0289925082349E+00 -2.0421407240959E-01
39  3.8000000000000E-01  1.0508345419429E+00 -2.0889409237497E-01
40  3.9000000000000E-01  1.0719530906354E+00 -2.1294883774478E-01
41  4.0000000000000E-01  1.0923131702013E+00 -2.1633233768605E-01
42  4.1000000000000E-01  1.1118808120126E+00 -2.1900194058392E-01
43  4.2000000000000E-01  1.1306232371911E+00 -2.2091867146854E-01
44  4.3000000000000E-01  1.1485090237265E+00 -2.2204755479023E-01
45  4.4000000000000E-01  1.1655082652087E+00 -2.2235789920950E-01
46  4.5000000000000E-01  1.1815927200129E+00 -2.2182354142158E-01
47  4.6000000000000E-01  1.1967359498621E+00 -2.2042304642022E-01
48  4.7000000000000E-01  1.2109134467851E+00 -2.1813986201836E-01
49  4.8000000000000E-01  1.2241027475950E+00 -2.1496242588121E-01
50  4.9000000000000E-01  1.2362835351168E+00 -2.1088422378520E-01
51  5.0000000000000E-01  1.2474377255148E+00 -2.0590379829096E-01
52  5.1000000000000E-01  1.2575495411885E+00 -2.0002470750512E-01
53  5.2000000000000E-01  1.2666055688304E+00 -1.9325543409962E-01
54  5.3000000000000E-01  1.2745948023714E+00 -1.8560924525404E-01
55  5.4000000000000E-01  1.2815086706626E+00 -1.7710400468131E-01
56  5.5000000000000E-01  1.2873410498802E+00 -1.6776193838527E-01
57  5.6000000000000E-01  1.2920882607636E+00 -1.5760935627520E-01
58  5.7000000000000E-01  1.2957490509287E+00 -1.4667633222267E-01
59  5.8000000000000E-01  1.2983245626225E+00 -1.3499634558619E-01
60  5.9000000000000E-01  1.2998182864040E+00 -1.2260588764300E-01
61  6.0000000000000E-01  1.3002360013552E+00 -1.0954403675320E-01
62  6.1000000000000E-01  1.2995857025341E+00 -9.5852006432401E-02
63  6.2000000000000E-01  1.2978775164815E+00 -8.1572670824029E-02
64  6.3000000000000E-01  1.2951236056930E+00 -6.6750072336614E-02
65  6.4000000000000E-01  1.2913380630462E+00 -5.1428916441508E-02
66  6.5000000000000E-01  1.2865367972548E+00 -3.5654058811604E-02
67  6.6000000000000E-01  1.2807374104809E+00 -1.9469990117156E-02
68  6.7000000000000E-01  1.2739590692950E+00 -2.9203238814793E-03
69  6.8000000000000E-01  1.2662223702149E+00  1.3952707166447E-02
70  6.9000000000000E-01  1.2575492010850E+00  3.1108740822124E-02
71  7.0000000000000E-01  1.2479625995775E+00  4.8509755868604E-02
72  7.1000000000000E-01  1.2374866101062E+00  6.6120518043456E-02
73  7.2000000000000E-01  1.2261461404363E+00  8.3908996454638E-02
74  7.3000000000000E-01  1.2139668192594E+00  1.0184674561310E-01
75  7.4000000000000E-01  1.2009748559750E+00  1.1990924852156E-01
76  7.5000000000000E-01  1.1871969038813E+00  1.3807621657681E-01
77  7.6000000000000E-01  1.1726599279277E+00  1.5633184240367E-01
78  7.7000000000000E-01  1.1573910781243E+00  1.7466500214028E-01
79  7.8000000000000E-01  1.1414175696331E+00  1.9306940413189E-01
80  7.9000000000000E-01  1.1247665704901E+00  2.1154368146152E-01
81  8.0000000000000E-01  1.1074650978227E+00  2.3009142624415E-01
82  8.1000000000000E-01  1.0895399233345E+00  2.4872116413494E-01
83  8.2000000000000E-01  1.0710174887348E+00  2.6744626804310E-01
84  8.3000000000000E-01  1.0519238316853E+00  2.8628481060024E-01
85  8.4000000000000E-01  1.0322845227353E+00  3.0525935549640E-01
86  8.5000000000000E-01  1.0121246136052E+00  3.2439668836689E-01
87  8.6000000000000E-01  9.9146859707135E-01  3.4372748848071E-01
88  8.7000000000000E-01  9.7034037859466E-01  3.6328594304305E-01
89  8.8000000000000E-01  9.4876325972745E-01  3.8310930647450E-01
90  8.9000000000000E-01  9.2675993322447E-01  4.0323740756389E-01
91  9.0000000000000E-01  9.0435248968093E-01  4.2371210790485E-01
92  9.1000000000000E-01  8.8156243541866E-01  4.4457671551444E-01
93  9.2000000000000E-01  8.5841072124490E-01  4.6587535799115E-01
94  9.3000000000000E-01  8.3491778161677E-01  4.8765231999620E-01
95  9.4000000000000E-01  8.1110358365858E-01  5.0995135023230E-01
96  9.5000000000000E-01  7.8698768539924E-01  5.3281494344572E-01
97  9.6000000000000E-01  7.6258930252404E-01  5.5628360328896E-01
98  9.7000000000000E-01  7.3792738286883E-01  5.8039509214843E-01
99  9.8000000000000E-01  7.1302068782527E-01  6.0518367426696E-01
100  9.9000000000000E-01  6.8788787977391E-01  6.3067935866932E-01
101  1.0000000000000E+00  6.6254761461655E-01  6.5690714853429E-01
102  1.0100000000000E+00  6.3701863844119E-01  6.8388630374620E-01
103  1.0200000000000E+00  6.1131988732101E-01  7.1162962340528E-01
104  1.0300000000000E+00  5.8547058922326E-01  7.4014275507890E-01
105  1.0400000000000E+00  5.5949036698383E-01  7.6942353753817E-01
106  1.0500000000000E+00  5.3339934128838E-01  7.9946138364730E-01
107  1.0600000000000E+00  5.0721823259045E-01  8.3023670995852E-01
108  1.0700000000000E+00  4.8096846089008E-01  8.6172041941688E-01
109  1.0800000000000E+00  4.5467224229308E-01  8.9387344339850E-01
110  1.0900000000000E+00  4.2835268126966E-01  9.2664634909510E-01
111  1.1000000000000E+00  4.0203385753163E-01  9.5997901802146E-01
112  1.1100000000000E+00  3.7574090644911E-01  9.9380040115986E-01
113  1.1200000000000E+00  3.4950009192970E-01  1.0280283559733E+00
114  1.1300000000000E+00  3.2333887068532E-01  1.0625695702145E+00
115  1.1400000000000E+00  2.9728594681396E-01  1.0973195771357E+00
116  1.1500000000000E+00  2.7137131562524E-01  1.1321628663643E+00
117  1.1600000000000E+00  2.4562629563949E-01  1.1669730943503E+00
118  1.1700000000000E+00  2.2008354769147E-01  1.2016133979183E+00
119  1.1800000000000E+00  1.9477708007050E-01  1.2359368140583E+00
120  1.1900000000000E+00  1.6974223863085E-01  1.2697868086780E+00
121  1.2000000000000E+00  1.4501568081006E-01  1.3029979165937E+00
122  1.2100000000000E+00  1.2063533249950E-01  1.3353964945711E+00
123  1.2200000000000E+00  9.6640326722713E-02  1.3668015887217E+00
124  1.2300000000000E+00  7.3070923094893E-02  1.3970259170164E+00
125  1.2400000000000E+00  4.9968407063127E-02  1.4258769670844E+00
126  1.2500000000000E+00  2.7374967964543E-02  1.4531582088131E+00
127  1.2600000000000E+00  5.3335549907925E-03  1.4786704205491E+00
128  1.2700000000000E+00 -1.6112289783522E-02  1.5022131268944E+00
129  1.2800000000000E+00 -3.6918622061477E-02  1.5235861452026E+00
130  1.2900000000000E+00 -5.7041310311934E-02  1.5425912368791E+00
131  1.3000000000000E+00 -7.6436275579685E-02  1.5590338584620E+00
132  1.3100000000000E+00 -9.5059756434422E-02  1.5727250061933E+00
133  1.3200000000000E+00 -1.1286859915999E-01  1.5834831463715E+00
134  1.3300000000000E+00 -1.2982057302359E-01  1.5911362221655E+00
135  1.3400000000000E+00 -1.4587471015502E-01  1.5955237257676E+00
136  1.3500000000000E+00 -1.6099166920071E-01  1.5964988227444E+00
137  1.3600000000000E+00 -1.7513412148919E-01  1.5939305131672E+00
138  1.3700000000000E+00 -1.8826715794868E-01  1.5877058115719E+00
139  1.3800000000000E+00 -2.0035871444669E-01  1.5777319249607E+00
140  1.3900000000000E+00 -2.1138001256919E-01  1.5639384049153E+00
141  1.4000000000000E+00 -2.2130601211572E-01  1.5462792463919E+00
142  1.4100000000000E+00 -2.3011587074688E-01  1.5247349018947E+00
143  1.4200000000000E+00 -2.3779340528052E-01  1.4993141754553E+00
144  1.4300000000000E+00 -2.4432754807718E-01  1.4700559561389E+00
145  1.4400000000000E+00 -2.4971279078437E-01  1.4370307456345E+00
146  1.4500000000000E+00 -2.5394960640642E-01  1.4003419288262E+00
147  1.4600000000000E+00 -2.5704483922809E-01  1.3601267300462E+00
148  1.4700000000000E+00 -2.5901205053937E-01  1.3165567909766E+00
149  1.4800000000000E+00 -2.5987180637212E-01  1.2698382988178E+00
150  1.4900000000000E+00 -2.5965189156035E-01  1.2202115853766E+00
151  1.5000000000000E+00 -2.5838743236129E-01  1.1679501090709E+00
152  1.5100000000000E+00 -2.5612090763132E-01  1.1133587225454E+00
153  1.5200000000000E+00 -2.5290202609143E-01  1.0567711184403E+00
154  1.5300000000000E+00 -2.4878744457924E-01  9.9854633501623E-01
155  1.5400000000000E+00 -2.4384029931957E-01  9.3906419159943E-01
156  1.5500000000000E+00 -2.3812951915929E-01  8.7871951121360E-01
157  1.5600000000000E+00 -2.3172888638886E-01  8.1791497422770E-01
158  1.5700000000000E+00 -2.2471580720008E-01  7.5705243232687E-01
159  1.5800000000000E+00 -2.1716974999363E-01  6.9652249655078E-01
160  1.5900000000000E+00 -2.0917030562127E-01  6.3669219635231E-01
161  1.6000000000000E+00 -2.0079482257835E-01  5.7789051556621E-01
162  1.6100000000000E+00 -1.9211553250173E-01  5.2039132557569E-01
163  1.6200000000000E+00 -1.8319689375927E-01  4.6439971079014E-01
164  1.6300000000000E+00 -1.7409799109994E-01  4.1007850777473E-01
165  1.6400000000000E+00 -1.6487614341045E-01  3.5758042404733E-01
166  1.6500000000000E+00 -1.5558686757832E-01  3.0704902019895E-01
167  1.6600000000000E+00 -1.4628361753206E-01  2.5861780913518E-01
168  1.6700000000000E+00 -1.3701752689395E-01  2.1240932235857E-01
169  1.6800000000000E+00 -1.2783716700098E-01  1.6853423989012E-01
170  1.6900000000000E+00 -1.1878832373726E-01  1.2709060319471E-01
171  1.7000000000000E+00 -1.0991379449049E-01  8.8163114471581E-02
172  1.7100000000000E+00 -1.0125320689335E-01  5.1822529108559E-02
173  1.7200000000000E+00 -9.2842860819027E-02  1.8125147193775E-02
174  1.7300000000000E+00 -8.4715594946401E-02 -1.2887590614185E-02
175  1.7400000000000E+00 -7.6900678986933E-02 -4.1189398596289E-02
176  1.7500000000000E+00 -6.9423732489679E-02 -6.6769329279963E-02
177  1.7600000000000E+00 -6.2306670910814E-02 -8.9631841984397E-02
178  1.7700000000000E+00 -5.5567679392324E-02 -1.0979675511193E-01
179  1.7800000000000E+00 -4.9221214508194E-02 -1.2729908139084E-01
180  1.7900000000000E+00 -4.3278033972047E-02 -1.4218874646810E-01
181  1.8000000000000E+00 -3.7745254061032E-02 -1.5453019226291E-01
182  1.8100000000000E+00 -3.2626434312522E-02 -1.6440186725718E-01
183  1.8200000000000E+00 -2.7921688783939E-02 -1.7189560708772E-01
184  1.8300000000000E+00 -2.3627822962528E-02 -1.7711590961202E-01
185  1.8400000000000E+00 -1.9738495180004E-02 -1.8017910961059E-01
186  1.8500000000000E+00 -1.6244401186396E-02 -1.8121245910708E-01
187  1.8600000000000E+00 -1.3133480342818E-02 -1.8035312008753E-01
188  1.8700000000000E+00 -1.0391141689584E-02 -1.7774707727019E-01
189  1.8800000000000E+00 -8.0005079847379E-03 -1.7354797922288E-01
190  1.8900000000000E+00 -5.9426756666460E-03 -1.6791591668248E-01
191  1.9000000000000E+00 -4.1969885202163E-03 -1.6101614769973E-01
192  1.9100000000000E+00 -2.7413227476625E-03 -1.5301777948809E-01
193  1.9200000000000E+00 -1.5523810037618E-03 -1.4409241748318E-01
194  1.9300000000000E+00 -6.0599290150352E-04 -1.3441279229488E-01
195  1.9400000000000E+00  1.2258051917264E-04 -1.2415137522479E-01
196  1.9500000000000E+00  6.5834117593064E-04 -1.1347899460838E-01
197  1.9600000000000E+00  1.0262494204287E-03 -1.0256346213109E-01
198  1.9700000000000E+00  1.2509240991668E-03 -9.1568222296113E-02
199  1.9800000000000E+00  1.3563384145695E-03 -8.0651008373221E-02
200  1.9900000000000E+00  1.3655738450776E-03 -6.9962675053082E-02
201  2.0000000000000E+00  1.3004564891106E-03 -5.9645735404895E-02
202  2.0100000000000E+00  1.1801612355767E-03 -4.9829856173662E-02
203  2.0200000000000E+00  1.0219470552767E-03 -4.0633561844265E-02
204  2.0300000000000E+00  8.4356427351645E-04 -3.2170930420192E-02
205  2.0400000000000E+00  6.6044586351556E-04 -2.4543265616919E-02
206  2.0500000000000E+00  4.8562783262864E-04 -1.7838561110649E-02
207  2.0600000000000E+00  3.2957117654048E-04 -1.2130726647099E-02
208  2.0700000000000E+00  2.0003757357265E-04 -7.4795408653365E-03
209  2.0800000000000E+00  1.0193639978973E-04 -3.9280700065918E-03
210  2.0900000000000E+00  3.7045718387161E-05 -1.4932665234977E-03
211  2.1000000000000E+00  6.1050204620998E-06 -2.6343047257351E-04
212  2.1100000000000E+00 -9.3859282519155E-07  4.2149088029313E-05
213  2.1200000000000E+00  1.0570752966418E-07 -4.5620662760871E-06
214  2.13  0. -0.
215  2.14 -0.  0.
216  2.15 -0.  0.
217  2.16  0.  0.
218  2.17  0.  0.
219  2.18  0.  0.
220  2.19  0.  0.
221  2.20  0.  0.
222  2.21  0.  0.
223  2.22  0.  0.
224  2.23  0.  0.
225  2.24  0.  0.
226  2.25  0.  0.
227  2.26  0.  0.
228  2.27  0.  0.
229  2.28  0.  0.
230  2.29  0.  0.
231  2.30  0.  0.
232  2.31  0.  0.
233  2.32  0.  0.
234  2.33  0.  0.
235  2.34  0.  0.
236  2.35  0.  0.
237  2.36  0.  0.
238  2.37  0.  0.
239  2.38  0.  0.
240  2.39  0.  0.
241  2.40  0.  0.
242  2.41  0.  0.
243  2.42  0.  0.
244  2.43  0.  0.
245  2.44  0.  0.
246  2.45  0.  0.
247  2.46  0.  0.
248  2.47  0.  0.
249  2.48  0.  0.
250  2.49  0.  0.
251  2.50  0.  0.
252  2.51  0.  0.
253  2.52  0.  0.
254  2.53  0.  0.
255  2.54  0.  0.
256  2.55  0.  0.
257  2.56  0.  0.
258  2.57  0.  0.
259  2.58  0.  0.
260  2.59  0.  0.
261  2.60  0.  0.
262  2.61  0.  0.
263  2.62  0.  0.
264  2.63  0.  0.
265  2.64  0.  0.
266  2.65  0.  0.
267  2.66  0.  0.
268  2.67  0.  0.
269  2.68  0.  0.
270  2.69  0.  0.
271  2.70  0.  0.
272  2.71  0.  0.
273  2.72  0.  0.
274  2.73  0.  0.
275  2.74  0.  0.
276  2.75  0.  0.
277  2.76  0.  0.
278  2.77  0.  0.
279  2.78  0.  0.
280  2.79  0.  0.
281  2.80  0.  0.
282  2.81  0.  0.
283  2.82  0.  0.
284  2.83  0.  0.
285  2.84  0.  0.
286  2.85  0.  0.
287  2.86  0.  0.
288  2.87  0.  0.
289  2.88  0.  0.
290  2.89  0.  0.
291  2.90  0.  0.
292  2.91  0.  0.
293  2.92  0.  0.
294  2.93  0.  0.
295  2.94  0.  0.
296  2.95  0.  0.
297  2.96  0.  0.
298  2.97  0.  0.
299  2.98  0.  0.
300  2.99  0.  0.
301  3.00  0.  0.
302  3.01  0.  0.
303  3.02  0.  0.
304  3.03  0.  0.
305  3.04  0.  0.
306  3.05  0.  0.
307  3.06  0.  0.
308  3.07  0.  0.
309  3.08  0.  0.
310  3.09  0.  0.
311  3.10  0.  0.
312  3.11  0.  0.
313  3.12  0.  0.
314  3.13  0.  0.
315  3.14  0.  0.
316  3.15  0.  0.
317  3.16  0.  0.
318  3.17  0.  0.
319  3.18  0.  0.
320  3.19  0.  0.
321  3.20  0.  0.
322  3.21  0.  0.
323  3.22  0.  0.
324  3.23  0.  0.
325  3.24  0.  0.
326  3.25  0.  0.
327  3.26  0.  0.
328  3.27  0.  0.
329  3.28  0.  0.
330  3.29  0.  0.
331  3.30  0.  0.
332  3.31  0.  0.
333  3.32  0.  0.
334  3.33  0.  0.
335  3.34  0.  0.
336  3.35  0.  0.
337  3.36  0.  0.
338  3.37  0.  0.
339  3.38  0.  0.
340  3.39  0.  0.
341  3.40  0.  0.
342  3.41  0.  0.
343  3.42  0.  0.
344  3.43  0.  0.
345  3.44  0.  0.
346  3.45  0.  0.
347  3.46  0.  0.
348  3.47  0.  0.
349  3.48  0.  0.
350  3.49  0.  0.
351  3.50  0.  0.
352  3.51  0.  0.
353  3.52  0.  0.
354  3.53  0.  0.
355  3.54  0.  0.
356  3.55  0.  0.
357  3.56  0.  0.
358  3.57  0.  0.
359  3.58  0.  0.
360  3.59  0.  0.
361  3.60  0.  0.
362  3.61  0.  0.
363  3.62  0.  0.
364  3.63  0.  0.
365  3.64  0.  0.
366  3.65  0.  0.
367  3.66  0.  0.
368  3.67  0.  0.
369  3.68  0.  0.
370  3.69  0.  0.
371  3.70  0.  0.
372  3.71  0.  0.
373  3.72  0.  0.
374  3.73  0.  0.
375  3.74  0.  0.
376  3.75  0.  0.
377  3.76  0.  0.
378  3.77  0.  0.
379  3.78  0.  0.
380  3.79  0.  0.
381  3.80  0.  0.
382  3.81  0.  0.
383  3.82  0.  0.
384  3.83  0.  0.
385  3.84  0.  0.
386  3.85  0.  0.
387  3.86  0.  0.
388  3.87  0.  0.
389  3.88  0.  0.
390  3.89  0.  0.
391  3.90  0.  0.
392  3.91  0.  0.
393  3.92  0.  0.
394  3.93  0.  0.
395  3.94  0.  0.
396  3.95  0.  0.
397  3.96  0.  0.
398  3.97  0.  0.
399  3.98  0.  0.
400  3.99  0.  0.
401  4.00  0.  0.
402  4.01  0.  0.
403  4.02  0.  0.
404  4.03  0.  0.
405  4.04  0.  0.
406  4.05  0.  0.
407  4.06  0.  0.
408  4.07  0.  0.
409  4.08  0.  0.
410  4.09  0.  0.
411  4.10  0.  0.
412  4.11  0.  0.
413  4.12  0.  0.
414  4.13  0.  0.
415  4.14  0.  0.
416  4.15  0.  0.
417  4.16  0.  0.
418  4.17  0.  0.
419  4.18  0.  0.
420  4.19  0.  0.
421  4.20  0.  0.
422  4.21  0.  0.
423  4.22  0.  0.
424  4.23  0.  0.
425  4.24  0.  0.
426  4.25  0.  0.
427  4.26  0.  0.
428  4.27  0.  0.
429  4.28  0.  0.
430  4.29  0.  0.
431  4.30  0.  0.
432  4.31  0.  0.
433  4.32  0.  0.
434  4.33  0.  0.
435  4.34  0.  0.
436  4.35  0.  0.
437  4.36  0.  0.
438  4.37  0.  0.
439  4.38  0.  0.
440  4.39  0.  0.
441  4.40  0.  0.
442  4.41  0.  0.
443  4.42  0.  0.
444  4.43  0.  0.
445  4.44  0.  0.
446  4.45  0.  0.
447  4.46  0.  0.
448  4.47  0.  0.
449  4.48  0.  0.
450  4.49  0.  0.
451  4.50  0.  0.
452  4.51  0.  0.
453  4.52  0.  0.
454  4.53  0.  0.
455  4.54  0.  0.
456  4.55  0.  0.
457  4.56  0.  0.
458  4.57  0.  0.
459  4.58  0.  0.
460  4.59  0.  0.
461  4.60  0.  0.
462  4.61  0.  0.
463  4.62  0.  0.
464  4.63  0.  0.
465  4.64  0.  0.
466  4.65  0.  0.
467  4.66  0.  0.
468  4.67  0.  0.
469  4.68  0.  0.
470  4.69  0.  0.
471  4.70  0.  0.
472  4.71  0.  0.
473  4.72  0.  0.
474  4.73  0.  0.
475  4.74  0.  0.
476  4.75  0.  0.
477  4.76  0.  0.
478  4.77  0.  0.
479  4.78  0.  0.
480  4.79  0.  0.
481  4.80  0.  0.
482  4.81  0.  0.
483  4.82  0.  0.
484  4.83  0.  0.
485  4.84  0.  0.
486  4.85  0.  0.
487  4.86  0.  0.
488  4.87  0.  0.
489  4.88  0.  0.
490  4.89  0.  0.
491  4.90  0.  0.
492  4.91  0.  0.
493  4.92  0.  0.
494  4.93  0.  0.
495  4.94  0.  0.
496  4.95  0.  0.
497  4.96  0.  0.
498  4.97  0.  0.
499  4.98  0.  0.
500  4.99  0.  0.
501  5.00  0.  0.
502  5.01  0.  0.
503  5.02  0.  0.
504  5.03  0.  0.
505  5.04  0.  0.
506  5.05  0.  0.
507  5.06  0.  0.
508  5.07  0.  0.
509  5.08  0.  0.
510  5.09  0.  0.
511  5.10  0.  0.
512  5.11  0.  0.
513  5.12  0.  0.
514  5.13  0.  0.
515  5.14  0.  0.
516  5.15  0.  0.
517  5.16  0.  0.
518  5.17  0.  0.
519  5.18  0.  0.
520  5.19  0.  0.
521  5.20  0.  0.
522  5.21  0.  0.
523  5.22  0.  0.
524  5.23  0.  0.
525  5.24  0.  0.
526  5.25  0.  0.
527  5.26  0.  0.
528  5.27  0.  0.
529  5.28  0.  0.
530  5.29  0.  0.
531  5.30  0.  0.
532  5.31  0.  0.
533  5.32  0.  0.
534  5.33  0.  0.
535  5.34  0.  0.
536  5.35  0.  0.
537  5.36  0.  0.
538  5.37  0.  0.
539  5.38  0.  0.
540  5.39  0.  0.
541  5.40  0.  0.
542  5.41  0.  0.
543  5.42  0.  0.
544  5.43  0.  0.
545  5.44  0.  0.
546  5.45  0.  0.
547  5.46  0.  0.
548  5.47  0.  0.
549  5.48  0.  0.
550  5.49  0.  0.
551  5.50  0.  0.
552  5.51  0.  0.
553  5.52  0.  0.
554  5.53  0.  0.
555  5.54  0.  0.
556  5.55  0.  0.
557  5.56  0.  0.
558  5.57  0.  0.
559  5.58  0.  0.
560  5.59  0.  0.
561  5.60  0.  0.
562  5.61  0.  0.
563  5.62  0.  0.
564  5.63  0.  0.
565  5.64  0.  0.
566  5.65  0.  0.
567  5.66  0.  0.
568  5.67  0.  0.
569  5.68  0.  0.
570  5.69  0.  0.
571  5.70  0.  0.
572  5.71  0.  0.
573  5.72  0.  0.
574  5.73  0.  0.
575  5.74  0.  0.
576  5.75  0.  0.
577  5.76  0.  0.
578  5.77  0.  0.
579  5.78  0.  0.
580  5.79  0.  0.
581  5.80  0.  0.
582  5.81  0.  0.
583  5.82  0.  0.
584  5.83  0.  0.
585  5.84  0.  0.
586  5.85  0.  0.
587  5.86  0.  0.
588  5.87  0.  0.
589  5.88  0.  0.
590  5.89  0.  0.
591  5.90  0.  0.
592  5.91  0.  0.
593  5.92  0.  0.
594  5.93  0.  0.
595  5.94  0.  0.
596  5.95  0.  0.
597  5.96  0.  0.
598  5.97  0.  0.
599  5.98  0.  0.
600  5.99  0.  0.
1                         6.0447299714278E+00  9.2662284704767E-01
1  0.0000000000000E+00  1.6965465407526E-08 -3.6128655248047E-08
2  1.0000000000000E-02  1.5397922451039E-03 -1.9504761483409E-03
3  2.0000000000000E-02  6.1349373108196E-03 -7.7529869656907E-03
4  3.0000000000000E-02  1.3713236786026E-02 -1.7261828940996E-02
5  4.0000000000000E-02  2.4156005299491E-02 -3.0237639456246E-02
6  5.0000000000000E-02  3.7300503646019E-02 -4.6352537368307E-02
7  6.0000000000000E-02  5.2943276174363E-02 -6.5197172787494E-02
8  7.0000000000000E-02  7.0844325070026E-02 -8.6289542491447E-02
9  8.0000000000000E-02  9.0732037200621E-02 -1.0908539128418E-01
10  9.0000000000000E-02  1.1230876387749E-01 -1.3298998701892E-01
11  1.0000000000000E-01  1.3525694052653E-01 -1.5737102859496E-01
12  1.1000000000000E-01  1.5924562211803E-01 -1.8157242257863E-01
13  1.2000000000000E-01  1.8393730150143E-01 -2.0492864566044E-01
14  1.3000000000000E-01  2.0899487170191E-01 -2.2677939731851E-01
15  1.4000000000000E-01  2.3408858988669E-01 -2.4648424007838E-01
16  1.5000000000000E-01  2.5890290017171E-01 -2.6343692379421E-01
17  1.6000000000000E-01  2.8314297473372E-01 -2.7707909546288E-01
18  1.7000000000000E-01  3.0654083778127E-01 -2.8691310714030E-01
19  1.8000000000000E-01  3.2886094473126E-01 -2.9251365136195E-01
20  1.9000000000000E-01  3.4990509929299E-01 -2.9353797576788E-01
21  2.0000000000000E-01  3.6951660388587E-01 -2.8973445598055E-01
22  2.1000000000000E-01  3.8758355367214E-01 -2.8094933766669E-01
23  2.2000000000000E-01  4.0404120119043E-01 -2.6713149452587E-01
24  2.3000000000000E-01  4.1887333681241E-01 -2.4833508800560E-01
25  2.4000000000000E-01  4.3211264966497E-01 -2.2472005609552E-01
26  2.5000000000000E-01  4.4384005389031E-01 -1.9655040179966E-01
27  2.6000000000000E-01  4.5418298576751E-01 -1.6419029598841E-01
28  2.7000000000000E-01  4.6331269788942E-01 -1.2809805343125E-01
29  2.8000000000000E-01  4.7144059687730E-01 -8.8818084044046E-02
30  2.9000000000000E-01  4.7881369062351E-01 -4.6970962899967E-02
31  3.0000000000000E-01  4.8570922939692E-01 -3.2418015268882E-03
32  3.1000000000000E-01  4.9242864196050E-01  4.1632861331203E-02
33  3.2000000000000E-01  4.9929088280054E-01  8.6879399695683E-02
34  3.3000000000000E-01  5.0662531934803E-01  1.3170239435354E-01
35  3.4000000000000E-01  5.1476429842157E-01  1.7530058246532E-01
36  3.5000000000000E-01  5.2403553882080E-01  2.1688314838857E-01
37  3.6000000000000E-01  5.3475450187931E-01  2.5568603140441E-01
38  3.7000000000000E-01  5.4721689373250E-01  2.9098792241572E-01
39  3.8000000000000E-01  5.6169145200738E-01  3.2212562448825E-01
40  3.9000000000000E-01  5.7841316559585E-01  3.4850846132809E-01
41  4.0000000000000E-01  5.9757706918450E-01  3.6963143330447E-01
42  4.1000000000000E-01  6.1933274439429E-01  3.8508684218717E-01
43  4.2000000000000E-01  6.4377964689842E-01  3.9457413300611E-01
44  4.3000000000000E-01  6.7096336395643E-01  3.9790773387812E-01
45  4.4000000000000E-01  7.0087288969298E-01  3.9502271169892E-01
46  4.5000000000000E-01  7.3343898647377E-01  3.8597810259049E-01
47  4.6000000000000E-01  7.6853368023726E-01  3.7095782016662E-01
48  4.7000000000000E-01  8.0597091601122E-01  3.5026909120695E-01
49  4.8000000000000E-01  8.4550837748410E-01  3.2433841633309E-01
50  4.9000000000000E-01  8.8685045183681E-01  2.9370510184498E-01
51  5.0000000000000E-01  9.2965229850364E-01  2.5901245706839E-01
52  5.1000000000000E-01  9.7352495855665E-01  2.2099679844864E-01
53  5.2000000000000E-01  1.0180414204241E+00  1.8047444628432E-01
54  5.3000000000000E-01  1.0627435380714E+00  1.3832694154216E-01
55  5.4000000000000E-01  1.1071496799851E+00  9.5484747797206E-02
56  5.5000000000000E-01  1.1507629716602E+00  5.2909736235646E-02
57  5.6000000000000E-01  1.1930799811277E+00  1.1576779157372E-02
58  5.7000000000000E-01  1.2335996866397E+00 -2.7545201063634E-02
59  5.8000000000000E-01  1.2718325581882E+00 -6.3512365539492E-02
60  5.9000000000000E-01  1.3073095802423E+00 -9.5424904679367E-02
61  6.0000000000000E-01  1.3395910420545E+00 -1.2244542478101E-01
62  6.1000000000000E-01  1.3682749241724E+00 -1.4381640987964E-01
63  6.2000000000000E-01  1.3930047153801E+00 -1.5887640638893E-01
64  6.3000000000000E-01  1.4134765031141E+00 -1.6707459806564E-01
65  6.4000000000000E-01  1.4294451923199E+00 -1.6798346545867E-01
66  6.5000000000000E-01  1.4407297225317E+00 -1.6130925682806E-01
67  6.6000000000000E-01  1.4472171704319E+00 -1.4690003598107E-01
68  6.7000000000000E-01  1.4488656449589E+00 -1.2475111589705E-01
69  6.8000000000000E-01  1.4457059038409E+00 -9.5007734629619E-02
70  6.9000000000000E-01  1.4378416438339E+00 -5.7964880914163E-02
71  7.0000000000000E-01  1.4254484415184E+00 -1.4064230247770E-02
72  7.1000000000000E-01  1.4087713467949E+00  3.6111793057988E-02
73  7.2000000000000E-01  1.3881211567509E+00  9.1848757233338E-02
74  7.3000000000000E-01  1.3638694228574E+00  1.5231164275775E-01
75  7.4000000000000E-01  1.3364422690256E+00  2.1655876262819E-01
76  7.5000000000000E-01  1.3063131214248E+00  2.8355795540251E-01
77  7.6000000000000E-01  1.2739944726861E+00  3.5220477695277E-01
78  7.7000000000000E-01  1.2400288227606E+00  4.2134237521799E-01
79  7.8000000000000E-01  1.2049789558789E+00  4.8978269607709E-01
80  7.9000000000000E-01  1.1694177274085E+00  5.5632863851922E-01
81  8.0000000000000E-01  1.1339175456447E+00  6.1979675420221E-01
82  8.1000000000000E-01  1.0990397414382E+00  6.7904007077638E-01
83  8.2000000000000E-01  1.0653240228937E+00  7.3297061038610E-01
84  8.3000000000000E-01  1.0332782130366E+00  7.8058117478075E-01
85  8.4000000000000E-01  1.0033684653008E+00  8.2096597655644E-01
86  8.5000000000000E-01  9.7601014496190E-01  8.5333971214309E-01
87  8.6000000000000E-01  9.5155955430767E-01  8.7705469603015E-01
88  8.7000000000000E-01  9.3030666557735E-01  8.9161570702209E-01
89  8.8000000000000E-01  9.1246900872429E-01  8.9669223551790E-01
90  8.9000000000000E-01  8.9818684116435E-01  8.9212786527356E-01
91  9.0000000000000E-01  8.8751970420443E-01  8.7794657305848E-01
92  9.1000000000000E-01  8.8044444620265E-01  8.5435578417953E-01
93  9.2000000000000E-01  8.7685476613946E-01  8.2174608003143E-01
94  9.3000000000000E-01  8.7656230364900E-01  7.8068751460568E-01
95  9.4000000000000E-01  8.7929927318807E-01  7.3192255911761E-01
96  9.5000000000000E-01  8.8472261142389E-01  6.7635575645923E-01
97  9.6000000000000E-01  8.9241957863633E-01  6.1504022888595E-01
98  9.7000000000000E-01  9.0191472748850E-01  5.4916124203251E-01
99  9.8000000000000E-01  9.1267812643823E-01  4.8001708490630E-01
100  9.9000000000000E-01  9.2413470083599E-01  4.0899757784731E-01
101  1.0000000000000E+00  9.3567453285515E-01  3.3756056755008E-01
102  1.0100000000000E+00  9.4666394225275E-01  2.6720680919845E-01
103  1.0200000000000E+00  9.5645715392590E-01  1.9945366978214E-01
104  1.0300000000000E+00  9.6440834564913E-01  1.3580811302419E-01
105  1.0400000000000E+00  9.6988386050189E-01  7.7739444516491E-02
106  1.0500000000000E+00  9.7227436350080E-01  2.6652305259603E-02
107  1.0600000000000E+00  9.7100672098196E-01 -1.6139597457940E-02
108  1.0700000000000E+00  9.6555538434285E-01 -4.9438541031034E-02
109  1.0800000000000E+00  9.5545306686133E-01 -7.2186156547115E-02
110  1.0900000000000E+00  9.4030051331081E-01 -8.3484677535469E-02
111  1.1000000000000E+00  9.1977517683143E-01 -8.2615663845598E-02
112  1.1100000000000E+00  8.9363863576024E-01 -6.9055837362868E-02
113  1.1200000000000E+00  8.6174260447396E-01 -4.2489714340056E-02
114  1.1300000000000E+00  8.2403341653737E-01 -2.8187734592166E-03
115  1.1400000000000E+00  7.8055488490399E-01  4.9833042160651E-02
116  1.1500000000000E+00  7.3144947243456E-01  1.1511762725351E-01
117  1.1600000000000E+00  6.7695773568161E-01  1.9246489325153E-01
118  1.1700000000000E+00  6.1741603562191E-01  2.8108882775731E-01
119  1.1800000000000E+00  5.5325253983024E-01  3.7999737047310E-01
120  1.1900000000000E+00  4.8498157127603E-01  4.8800597355909E-01
121  1.2000000000000E+00  4.1319638869087E-01  6.0375464867223E-01
122  1.2100000000000E+00  3.3856051182667E-01  7.2572824038864E-01
123  1.2200000000000E+00  2.6179773151897E-01  8.5227960717194E-01
124  1.2300000000000E+00  1.8368096848201E-01  9.8165533827932E-01
125  1.2400000000000E+00  1.0502016617865E-01  1.1120235880184E+00
126  1.2500000000000E+00  2.6649421145086E-02  1.2415035692945E+00
127  1.2600000000000E+00 -5.0586431286929E-02  1.3681962166147E+00