Pr    ONCVPSP-4.0.1  r_core=   2.01067   1.60183   1.90528   1.60183
59.0000     13.0000      250626    zatom,zion,pspd
8      11   3     4   600     0    pspcod,pspxc,lmax,lloc,mmax,r2well
5.99000000 37.20000000  0.00000000    rchrg fchrg qchrg
2     2     2     2     0    nproj
1     1           extension_switch
0                         6.4846495825002E+00  7.8041542870787E-01
1  0.0000000000000E+00  1.2116846415111E-10 -3.3318982989305E-10
2  1.0000000000000E-02  3.1615511139144E-02 -3.6931649620809E-03
3  2.0000000000000E-02  6.3231852481319E-02 -7.4052735217062E-03
4  3.0000000000000E-02  9.4849600564055E-02 -1.1154769596137E-02
5  4.0000000000000E-02  1.2646882751433E-01 -1.4959104777147E-02
6  5.0000000000000E-02  1.5808885611332E-01 -1.8834259670348E-02
7  6.0000000000000E-02  1.8970802349849E-01 -2.2794285998160E-02
8  7.0000000000000E-02  2.2132345623850E-01 -2.6850875992400E-02
9  8.0000000000000E-02  2.5293085939549E-01 -3.1012965269316E-02
10  9.0000000000000E-02  2.8452432203976E-01 -3.5286374970370E-02
11  1.0000000000000E-01  3.1609614150675E-01 -3.9673498470845E-02
12  1.1000000000000E-01  3.4763666848573E-01 -4.4173037410469E-02
13  1.2000000000000E-01  3.7913417480702E-01 -4.8779791192295E-02
14  1.3000000000000E-01  4.1057474555133E-01 -5.3484503434152E-02
15  1.4000000000000E-01  4.4194219684419E-01 -5.8273768149213E-02
16  1.5000000000000E-01  4.7321802042219E-01 -6.3129997685957E-02
17  1.6000000000000E-01  5.0438135576973E-01 -6.8031453681849E-02
18  1.7000000000000E-01  5.3540899032746E-01 -7.2952341487820E-02
19  1.8000000000000E-01  5.6627538796981E-01 -7.7862967711810E-02
20  1.9000000000000E-01  5.9695274564251E-01 -8.2729959717464E-02
21  2.0000000000000E-01  6.2741107774437E-01 -8.7516545109239E-02
22  2.1000000000000E-01  6.5761832753470E-01 -9.2182888445626E-02
23  2.2000000000000E-01  6.8754050455109E-01 -9.6686481658445E-02
24  2.3000000000000E-01  7.1714184673597E-01 -1.0098258392618E-01
25  2.4000000000000E-01  7.4638500569626E-01 -1.0502470606288E-01
26  2.5000000000000E-01  7.7523125326252E-01 -1.0876513384845E-01
27  2.6000000000000E-01  8.0364070727464E-01 -1.1215548415034E-01
28  2.7000000000000E-01  8.3157257430291E-01 -1.1514728717677E-01
29  2.8000000000000E-01  8.5898540681850E-01 -1.1769258776509E-01
30  2.9000000000000E-01  8.8583737215908E-01 -1.1974455825173E-01
31  3.0000000000000E-01  9.1208653049380E-01 -1.2125811519625E-01
32  3.1000000000000E-01  9.3769111888087E-01 -1.2219053204736E-01
33  3.2000000000000E-01  9.6260983842970E-01 -1.2250203974488E-01
34  3.3000000000000E-01  9.8680214153092E-01 -1.2215640725216E-01
35  3.4000000000000E-01  1.0102285161013E+00 -1.2112149410880E-01
36  3.5000000000000E-01  1.0328507638069E+00 -1.1936976728425E-01
37  3.6000000000000E-01  1.0546322692780E+00 -1.1687877489867E-01
38  3.7000000000000E-01  1.0755382574107E+00 -1.1363156975505E-01
39  3.8000000000000E-01  1.0955360359655E+00 -1.0961707609505E-01
40  3.9000000000000E-01  1.1145952208185E+00 -1.0483039354442E-01
41  4.0000000000000E-01  1.1326879413954E+00 -9.9273032848686E-02
42  4.1000000000000E-01  1.1497890240214E+00 -9.2953078709277E-02
43  4.2000000000000E-01  1.1658761511529E+00 -8.5885275807800E-02
44  4.3000000000000E-01  1.1809299947044E+00 -7.8091034944175E-02
45  4.4000000000000E-01  1.1949343219644E+00 -6.9598357103882E-02
46  4.5000000000000E-01  1.2078760728828E+00 -6.0441674201844E-02
47  4.6000000000000E-01  1.2197454078243E+00 -5.0661606215515E-02
48  4.7000000000000E-01  1.2305357251995E+00 -4.0304635406542E-02
49  4.8000000000000E-01  1.2402436487197E+00 -2.9422699329656E-02
50  4.9000000000000E-01  1.2488689843514E+00 -1.8072705325914E-02
51  5.0000000000000E-01  1.2564146473872E+00 -6.3159701860401E-03
52  5.1000000000000E-01  1.2628865603841E+00  5.7824103648548E-03
53  5.2000000000000E-01  1.2682935230463E+00  1.8154256777662E-02
54  5.3000000000000E-01  1.2726470554551E+00  3.0729058913618E-02
55  5.4000000000000E-01  1.2759612163499E+00  4.3434780100221E-02
56  5.5000000000000E-01  1.2782523984595E+00  5.6198703939940E-02
57  5.6000000000000E-01  1.2795391031508E+00  6.8948315113968E-02
58  5.7000000000000E-01  1.2798416969126E+00  8.1612204817830E-02
59  5.8000000000000E-01  1.2791821524107E+00  9.4120990955118E-02
60  5.9000000000000E-01  1.2775837770479E+00  1.0640824280514E-01
61  6.0000000000000E-01  1.2750709321217E+00  1.1841139957777E-01
62  6.1000000000000E-01  1.2716687458028E+00  1.3007267207921E-01
63  6.2000000000000E-01  1.2674028232517E+00  1.4133991663968E-01
64  6.3000000000000E-01  1.2622989572468E+00  1.5216747050202E-01
65  6.4000000000000E-01  1.2563828427207E+00  1.6251693803961E-01
66  6.5000000000000E-01  1.2496797985793E+00  1.7235791746402E-01
67  6.6000000000000E-01  1.2422145001264E+00  1.8166865809593E-01
68  6.7000000000000E-01  1.2340107253194E+00  1.9043663880496E-01
69  6.8000000000000E-01  1.2250911179530E+00  1.9865905887095E-01
70  6.9000000000000E-01  1.2154769706967E+00  2.0634323327683E-01
71  7.0000000000000E-01  1.2051880307147E+00  2.1350688530325E-01
72  7.1000000000000E-01  1.1942423303573E+00  2.2017833025179E-01
73  7.2000000000000E-01  1.1826560451503E+00  2.2639654516680E-01
74  7.3000000000000E-01  1.1704433810153E+00  2.3221112054507E-01
75  7.4000000000000E-01  1.1576164923368E+00  2.3768209120852E-01
76  7.5000000000000E-01  1.1441854321521E+00  2.4287964475312E-01
77  7.6000000000000E-01  1.1301581353860E+00  2.4788370726655E-01
78  7.7000000000000E-01  1.1155404356805E+00  2.5278340731374E-01
79  7.8000000000000E-01  1.1003361159912E+00  2.5767642050775E-01
80  7.9000000000000E-01  1.0845469927384E+00  2.6266819830158E-01
81  8.0000000000000E-01  1.0681730329143E+00  2.6787108593784E-01
82  8.1000000000000E-01  1.0512125031669E+00  2.7340333576383E-01
83  8.2000000000000E-01  1.0336621495064E+00  2.7938802334513E-01
84  8.3000000000000E-01  1.0155174059199E+00  2.8595187497675E-01
85  8.4000000000000E-01  9.9677262983411E-01  2.9322401628409E-01
86  8.5000000000000E-01  9.7742136204208E-01  3.0133465261275E-01
87  8.6000000000000E-01  9.5745660841080E-01  3.1041369281498E-01
88  8.7000000000000E-01  9.3687114041455E-01  3.2058932884045E-01
89  8.8000000000000E-01  9.1565781129967E-01  3.3198658421893E-01
90  8.9000000000000E-01  8.9380988448047E-01  3.4472584507510E-01
91  9.0000000000000E-01  8.7132137059798E-01  3.5892138773311E-01
92  9.1000000000000E-01  8.4818736954335E-01  3.7467991724482E-01
93  9.2000000000000E-01  8.2440441365935E-01  3.9209913130756E-01
94  9.3000000000000E-01  7.9997080828600E-01  4.1126632402167E-01
95  9.4000000000000E-01  7.7488696581181E-01  4.3225704377448E-01
96  9.5000000000000E-01  7.4915572942973E-01  4.5513381922762E-01
97  9.6000000000000E-01  7.2278268287651E-01  4.7994496693059E-01
98  9.7000000000000E-01  6.9577644255436E-01  5.0672349349073E-01
99  9.8000000000000E-01  6.6814892859396E-01  5.3548610450412E-01
100  9.9000000000000E-01  6.3991561161435E-01  5.6623233160209E-01
101  1.0000000000000E+00  6.1109573216720E-01  5.9894378800225E-01
102  1.0100000000000E+00  5.8171249011612E-01  6.3358356188513E-01
103  1.0200000000000E+00  5.5179320149311E-01  6.7009575575492E-01
104  1.0300000000000E+00  5.2136942069028E-01  7.0840517870503E-01
105  1.0400000000000E+00  4.9047702618066E-01  7.4841719720587E-01
106  1.0500000000000E+00  4.5915626831462E-01  7.9001774867906E-01
107  1.0600000000000E+00  4.2745177810059E-01  8.3307352073892E-01
108  1.0700000000000E+00  3.9541253624920E-01  8.7743229757774E-01
109  1.0800000000000E+00  3.6309180213114E-01  9.2292347356694E-01
110  1.0900000000000E+00  3.3054700266674E-01  9.6935873275838E-01
111  1.1000000000000E+00  2.9783958152673E-01  1.0165328916055E+00
112  1.1100000000000E+00  2.6503480937061E-01  1.0642249009114E+00
113  1.1200000000000E+00  2.3220155618170E-01  1.1121990017485E+00
114  1.1300000000000E+00  1.9941202706803E-01  1.1602060289076E+00
115  1.1400000000000E+00  1.6674146318573E-01  1.2079848543237E+00
116  1.1500000000000E+00  1.3426780970085E-01  1.2552639619120E+00
117  1.1600000000000E+00  1.0207135293548E-01  1.3017631443222E+00
118  1.1700000000000E+00  7.0234329042117E-02  1.3471953113095E+00
119  1.1800000000000E+00  3.8840506715156E-02  1.3912683987050E+00
120  1.1900000000000E+00  7.9747465791853E-03  1.4336873663730E+00
121  1.2000000000000E+00 -2.2277460008370E-02  1.4741562730443E+00
122  1.2100000000000E+00 -5.1830469938874E-02  1.5123804155258E+00
123  1.2200000000000E+00 -8.0598982283528E-02  1.5480685194935E+00
124  1.2300000000000E+00 -1.0849854433518E-01  1.5809349688695E+00
125  1.2400000000000E+00 -1.3544606694393E-01  1.6107020606582E+00
126  1.2500000000000E+00 -1.6136034637338E-01  1.6371022720532E+00
127  1.2600000000000E+00 -1.8616258996540E-01  1.6598805266123E+00
128  1.2700000000000E+00 -2.0977694297390E-01  1.6787964463133E+00
129  1.2800000000000E+00 -2.3213101400728E-01  1.6936265763326E+00
130  1.2900000000000E+00 -2.5315639659601E-01  1.7041665694011E+00
131  1.3000000000000E+00 -2.7278918447199E-01  1.7102333165750E+00
132  1.3100000000000E+00 -2.9097047819853E-01  1.7116670111788E+00
133  1.3200000000000E+00 -3.0764688081839E-01  1.7083331325099E+00
134  1.3300000000000E+00 -3.2277098018221E-01  1.7001243356157E+00
135  1.3400000000000E+00 -3.3630181557140E-01  1.6869622330275E+00
136  1.3500000000000E+00 -3.4820532612883E-01  1.6687990537371E+00
137  1.3600000000000E+00 -3.5845477844915E-01  1.6456191639049E+00
138  1.3700000000000E+00 -3.6703117044505E-01  1.6174404327470E+00
139  1.3800000000000E+00 -3.7392360828927E-01  1.5843154257545E+00
140  1.3900000000000E+00 -3.7912965282248E-01  1.5463324057944E+00
141  1.4000000000000E+00 -3.8265563130511E-01  1.5036161207224E+00
142  1.4100000000000E+00 -3.8451690976657E-01  1.4563283538508E+00
143  1.4200000000000E+00 -3.8473812045437E-01  1.4046682109353E+00
144  1.4300000000000E+00 -3.8335333800428E-01  1.3488721142483E+00
145  1.4400000000000E+00 -3.8040619692493E-01  1.2892134707481E+00
146  1.4500000000000E+00 -3.7594994180648E-01  1.2260019773082E+00
147  1.4600000000000E+00 -3.7004740032121E-01  1.1595825214193E+00
148  1.4700000000000E+00 -3.6277086755310E-01  1.0903336306373E+00
149  1.4800000000000E+00 -3.5420188849040E-01  1.0186654183584E+00
150  1.4900000000000E+00 -3.4443092360632E-01  9.4501696716818E-01
151  1.5000000000000E+00 -3.3355688033935E-01  8.6985308401851E-01
152  1.5100000000000E+00 -3.2168649095085E-01  7.9366035379610E-01
153  1.5200000000000E+00 -3.0893351466993E-01  7.1694240940936E-01
154  1.5300000000000E+00 -2.9541773923807E-01  6.4021432734205E-01
155  1.5400000000000E+00 -2.8126375388775E-01  5.6399604753897E-01
156  1.5500000000000E+00 -2.6659946246918E-01  4.8880470562047E-01
157  1.5600000000000E+00 -2.5155430182059E-01  4.1514575357963E-01
158  1.5700000000000E+00 -2.3625712656774E-01  3.4350273231651E-01
159  1.5800000000000E+00 -2.2083371633149E-01  2.7432553982918E-01
160  1.5900000000000E+00 -2.0540385868016E-01  2.0801703632540E-01
161  1.6000000000000E+00 -1.9007799605786E-01  1.4491803179830E-01
162  1.6100000000000E+00 -1.7495339896197E-01  8.5290600155490E-02
163  1.6200000000000E+00 -1.6011546781442E-01  2.9331751008455E-02
164  1.6300000000000E+00 -1.4564272900437E-01 -2.2793838488517E-02
165  1.6400000000000E+00 -1.3160763553262E-01 -7.0947645099845E-02
166  1.6500000000000E+00 -1.1807607278502E-01 -1.1501898790731E-01
167  1.6600000000000E+00 -1.0510704435887E-01 -1.5492575667320E-01
168  1.6700000000000E+00 -9.2752399334844E-02 -1.9061502487188E-01
169  1.6800000000000E+00 -8.1056624708771E-02 -2.2206340912193E-01
170  1.6900000000000E+00 -7.0056704615962E-02 -2.4927717178956E-01
171  1.7000000000000E+00 -5.9782047168032E-02 -2.7229206639608E-01
172  1.7100000000000E+00 -5.0254479342139E-02 -2.9117292623760E-01
173  1.7200000000000E+00 -4.1488309766907E-02 -3.0601299872690E-01
174  1.7300000000000E+00 -3.3490458564197E-02 -3.1693303052527E-01
175  1.7400000000000E+00 -2.6260652767762E-02 -3.2408011083663E-01
176  1.7500000000000E+00 -1.9791685244360E-02 -3.2762628233871E-01
177  1.7600000000000E+00 -1.4069734401407E-02 -3.2776693157572E-01
178  1.7700000000000E+00 -9.0747414073179E-03 -3.2471897259247E-01
179  1.7800000000000E+00 -4.7808410810164E-03 -3.1871883963421E-01
180  1.7900000000000E+00 -1.1568421123681E-03 -3.1002030645431E-01
181  1.8000000000000E+00  1.8332482043522E-03 -2.9889215146041E-01
182  1.8100000000000E+00  4.2296599848920E-03 -2.8561568948590E-01
183  1.8200000000000E+00  6.0762631260560E-03 -2.7048219213224E-01
184  1.8300000000000E+00  7.4199419802942E-03 -2.5379021979400E-01
185  1.8400000000000E+00  8.3099485473148E-03 -2.3584288936710E-01
186  1.8500000000000E+00  8.7972405917390E-03 -2.1694510225386E-01
187  1.8600000000000E+00  8.9338112357741E-03 -1.9740075770305E-01
188  1.8700000000000E+00  8.7720166607636E-03 -1.7750997674211E-01
189  1.8800000000000E+00  8.3639102484761E-03 -1.5756636640323E-01
190  1.8900000000000E+00  7.7605725318018E-03 -1.3785430709705E-01
191  1.9000000000000E+00  7.0115188052211E-03 -1.1864646168446E-01
192  1.9100000000000E+00  6.1639609356186E-03 -1.0020102739272E-01
193  1.9200000000000E+00  5.2608091895979E-03 -8.2756143441020E-02
194  1.9300000000000E+00  4.3418390435159E-03 -6.6531484992633E-02
195  1.9400000000000E+00  3.4455119011671E-03 -5.1731548892753E-02
196  1.9500000000000E+00  2.6056701586730E-03 -3.8537563486100E-02
197  1.9600000000000E+00  1.8513570574750E-03 -2.7106337804937E-02
198  1.9700000000000E+00  1.2064133218982E-03 -1.7568735013077E-02
199  1.9800000000000E+00  6.8940327473078E-04 -1.0031835451886E-02
200  1.9900000000000E+00  3.1132148595290E-04 -4.5468646669222E-03
201  2.0000000000000E+00  8.3599142870937E-05 -1.2313748249103E-03
202  2.0100000000000E+00  1.7926847149965E-06 -2.6721706430303E-05
203  2.0200000000000E+00 -2.4410912617663E-06  3.6491194558225E-05
204  2.0300000000000E+00  1.3953598130170E-06 -2.0662080399292E-05
205  2.04 -0.  0.
206  2.05 -0. -0.
207  2.06  0.  0.
208  2.07  0.  0.
209  2.08  0.  0.
210  2.09  0.  0.
211  2.10  0.  0.
212  2.11  0.  0.
213  2.12  0.  0.
214  2.13  0.  0.
215  2.14  0.  0.
216  2.15  0.  0.
217  2.16  0.  0.
218  2.17  0.  0.
219  2.18  0.  0.
220  2.19  0.  0.
221  2.20  0.  0.
222  2.21  0.  0.
223  2.22  0.  0.
224  2.23  0.  0.
225  2.24  0.  0.
226  2.25  0.  0.
227  2.26  0.  0.
228  2.27  0.  0.
229  2.28  0.  0.
230  2.29  0.  0.
231  2.30  0.  0.
232  2.31  0.  0.
233  2.32  0.  0.
234  2.33  0.  0.
235  2.34  0.  0.
236  2.35  0.  0.
237  2.36  0.  0.
238  2.37  0.  0.
239  2.38  0.  0.
240  2.39  0.  0.
241  2.40  0.  0.
242  2.41  0.  0.
243  2.42  0.  0.
244  2.43  0.  0.
245  2.44  0.  0.
246  2.45  0.  0.
247  2.46  0.  0.
248  2.47  0.  0.
249  2.48  0.  0.
250  2.49  0.  0.
251  2.50  0.  0.
252  2.51  0.  0.
253  2.52  0.  0.
254  2.53  0.  0.
255  2.54  0.  0.
256  2.55  0.  0.
257  2.56  0.  0.
258  2.57  0.  0.
259  2.58  0.  0.
260  2.59  0.  0.
261  2.60  0.  0.
262  2.61  0.  0.
263  2.62  0.  0.
264  2.63  0.  0.
265  2.64  0.  0.
266  2.65  0.  0.
267  2.66  0.  0.
268  2.67  0.  0.
269  2.68  0.  0.
270  2.69  0.  0.
271  2.70  0.  0.
272  2.71  0.  0.
273  2.72  0.  0.
274  2.73  0.  0.
275  2.74  0.  0.
276  2.75  0.  0.
277  2.76  0.  0.
278  2.77  0.  0.
279  2.78  0.  0.
280  2.79  0.  0.
281  2.80  0.  0.
282  2.81  0.  0.
283  2.82  0.  0.
284  2.83  0.  0.
285  2.84  0.  0.
286  2.85  0.  0.
287  2.86  0.  0.
288  2.87  0.  0.
289  2.88  0.  0.
290  2.89  0.  0.
291  2.90  0.  0.
292  2.91  0.  0.
293  2.92  0.  0.
294  2.93  0.  0.
295  2.94  0.  0.
296  2.95  0.  0.
297  2.96  0.  0.
298  2.97  0.  0.
299  2.98  0.  0.
300  2.99  0.  0.
301  3.00  0.  0.
302  3.01  0.  0.
303  3.02  0.  0.
304  3.03  0.  0.
305  3.04  0.  0.
306  3.05  0.  0.
307  3.06  0.  0.
308  3.07  0.  0.
309  3.08  0.  0.
310  3.09  0.  0.
311  3.10  0.  0.
312  3.11  0.  0.
313  3.12  0.  0.
314  3.13  0.  0.
315  3.14  0.  0.
316  3.15  0.  0.
317  3.16  0.  0.
318  3.17  0.  0.
319  3.18  0.  0.
320  3.19  0.  0.
321  3.20  0.  0.
322  3.21  0.  0.
323  3.22  0.  0.
324  3.23  0.  0.
325  3.24  0.  0.
326  3.25  0.  0.
327  3.26  0.  0.
328  3.27  0.  0.
329  3.28  0.  0.
330  3.29  0.  0.
331  3.30  0.  0.
332  3.31  0.  0.
333  3.32  0.  0.
334  3.33  0.  0.
335  3.34  0.  0.
336  3.35  0.  0.
337  3.36  0.  0.
338  3.37  0.  0.
339  3.38  0.  0.
340  3.39  0.  0.
341  3.40  0.  0.
342  3.41  0.  0.
343  3.42  0.  0.
344  3.43  0.  0.
345  3.44  0.  0.
346  3.45  0.  0.
347  3.46  0.  0.
348  3.47  0.  0.
349  3.48  0.  0.
350  3.49  0.  0.
351  3.50  0.  0.
352  3.51  0.  0.
353  3.52  0.  0.
354  3.53  0.  0.
355  3.54  0.  0.
356  3.55  0.  0.
357  3.56  0.  0.
358  3.57  0.  0.
359  3.58  0.  0.
360  3.59  0.  0.
361  3.60  0.  0.
362  3.61  0.  0.
363  3.62  0.  0.
364  3.63  0.  0.
365  3.64  0.  0.
366  3.65  0.  0.
367  3.66  0.  0.
368  3.67  0.  0.
369  3.68  0.  0.
370  3.69  0.  0.
371  3.70  0.  0.
372  3.71  0.  0.
373  3.72  0.  0.
374  3.73  0.  0.
375  3.74  0.  0.
376  3.75  0.  0.
377  3.76  0.  0.
378  3.77  0.  0.
379  3.78  0.  0.
380  3.79  0.  0.
381  3.80  0.  0.
382  3.81  0.  0.
383  3.82  0.  0.
384  3.83  0.  0.
385  3.84  0.  0.
386  3.85  0.  0.
387  3.86  0.  0.
388  3.87  0.  0.
389  3.88  0.  0.
390  3.89  0.  0.
391  3.90  0.  0.
392  3.91  0.  0.
393  3.92  0.  0.
394  3.93  0.  0.
395  3.94  0.  0.
396  3.95  0.  0.
397  3.96  0.  0.
398  3.97  0.  0.
399  3.98  0.  0.
400  3.99  0.  0.
401  4.00  0.  0.
402  4.01  0.  0.
403  4.02  0.  0.
404  4.03  0.  0.
405  4.04  0.  0.
406  4.05  0.  0.
407  4.06  0.  0.
408  4.07  0.  0.
409  4.08  0.  0.
410  4.09  0.  0.
411  4.10  0.  0.
412  4.11  0.  0.
413  4.12  0.  0.
414  4.13  0.  0.
415  4.14  0.  0.
416  4.15  0.  0.
417  4.16  0.  0.
418  4.17  0.  0.
419  4.18  0.  0.
420  4.19  0.  0.
421  4.20  0.  0.
422  4.21  0.  0.
423  4.22  0.  0.
424  4.23  0.  0.
425  4.24  0.  0.
426  4.25  0.  0.
427  4.26  0.  0.
428  4.27  0.  0.
429  4.28  0.  0.
430  4.29  0.  0.
431  4.30  0.  0.
432  4.31  0.  0.
433  4.32  0.  0.
434  4.33  0.  0.
435  4.34  0.  0.
436  4.35  0.  0.
437  4.36  0.  0.
438  4.37  0.  0.
439  4.38  0.  0.
440  4.39  0.  0.
441  4.40  0.  0.
442  4.41  0.  0.
443  4.42  0.  0.
444  4.43  0.  0.
445  4.44  0.  0.
446  4.45  0.  0.
447  4.46  0.  0.
448  4.47  0.  0.
449  4.48  0.  0.
450  4.49  0.  0.
451  4.50  0.  0.
452  4.51  0.  0.
453  4.52  0.  0.
454  4.53  0.  0.
455  4.54  0.  0.
456  4.55  0.  0.
457  4.56  0.  0.
458  4.57  0.  0.
459  4.58  0.  0.
460  4.59  0.  0.
461  4.60  0.  0.
462  4.61  0.  0.
463  4.62  0.  0.
464  4.63  0.  0.
465  4.64  0.  0.
466  4.65  0.  0.
467  4.66  0.  0.
468  4.67  0.  0.
469  4.68  0.  0.
470  4.69  0.  0.
471  4.70  0.  0.
472  4.71  0.  0.
473  4.72  0.  0.
474  4.73  0.  0.
475  4.74  0.  0.
476  4.75  0.  0.
477  4.76  0.  0.
478  4.77  0.  0.
479  4.78  0.  0.
480  4.79  0.  0.
481  4.80  0.  0.
482  4.81  0.  0.
483  4.82  0.  0.
484  4.83  0.  0.
485  4.84  0.  0.
486  4.85  0.  0.
487  4.86  0.  0.
488  4.87  0.  0.
489  4.88  0.  0.
490  4.89  0.  0.
491  4.90  0.  0.
492  4.91  0.  0.
493  4.92  0.  0.
494  4.93  0.  0.
495  4.94  0.  0.
496  4.95  0.  0.
497  4.96  0.  0.
498  4.97  0.  0.
499  4.98  0.  0.
500  4.99  0.  0.
501  5.00  0.  0.
502  5.01  0.  0.
503  5.02  0.  0.
504  5.03  0.  0.
505  5.04  0.  0.
506  5.05  0.  0.
507  5.06  0.  0.
508  5.07  0.  0.
509  5.08  0.  0.
510  5.09  0.  0.
511  5.10  0.  0.
512  5.11  0.  0.
513  5.12  0.  0.
514  5.13  0.  0.
515  5.14  0.  0.
516  5.15  0.  0.
517  5.16  0.  0.
518  5.17  0.  0.
519  5.18  0.  0.
520  5.19  0.  0.
521  5.20  0.  0.
522  5.21  0.  0.
523  5.22  0.  0.
524  5.23  0.  0.
525  5.24  0.  0.
526  5.25  0.  0.
527  5.26  0.  0.
528  5.27  0.  0.
529  5.28  0.  0.
530  5.29  0.  0.
531  5.30  0.  0.
532  5.31  0.  0.
533  5.32  0.  0.
534  5.33  0.  0.
535  5.34  0.  0.
536  5.35  0.  0.
537  5.36  0.  0.
538  5.37  0.  0.
539  5.38  0.  0.
540  5.39  0.  0.
541  5.40  0.  0.
542  5.41  0.  0.
543  5.42  0.  0.
544  5.43  0.  0.
545  5.44  0.  0.
546  5.45  0.  0.
547  5.46  0.  0.
548  5.47  0.  0.
549  5.48  0.  0.
550  5.49  0.  0.
551  5.50  0.  0.
552  5.51  0.  0.
553  5.52  0.  0.
554  5.53  0.  0.
555  5.54  0.  0.
556  5.55  0.  0.
557  5.56  0.  0.
558  5.57  0.  0.
559  5.58  0.  0.
560  5.59  0.  0.
561  5.60  0.  0.
562  5.61  0.  0.
563  5.62  0.  0.
564  5.63  0.  0.
565  5.64  0.  0.
566  5.65  0.  0.
567  5.66  0.  0.
568  5.67  0.  0.
569  5.68  0.  0.
570  5.69  0.  0.
571  5.70  0.  0.
572  5.71  0.  0.
573  5.72  0.  0.
574  5.73  0.  0.
575  5.74  0.  0.
576  5.75  0.  0.
577  5.76  0.  0.
578  5.77  0.  0.
579  5.78  0.  0.
580  5.79  0.  0.
581  5.80  0.  0.
582  5.81  0.  0.
583  5.82  0.  0.
584  5.83  0.  0.
585  5.84  0.  0.
586  5.85  0.  0.
587  5.86  0.  0.
588  5.87  0.  0.
589  5.88  0.  0.
590  5.89  0.  0.
591  5.90  0.  0.
592  5.91  0.  0.
593  5.92  0.  0.
594  5.93  0.  0.
595  5.94  0.  0.
596  5.95  0.  0.
597  5.96  0.  0.
598  5.97  0.  0.
599  5.98  0.  0.
600  5.99  0.  0.
1                         4.7233329196727E+00  1.3535265208431E+00
1  0.0000000000000E+00  1.8467752396778E-08 -4.3428496354636E-08
2  1.0000000000000E-02  1.4605957570016E-03 -1.6934611305410E-03
3  2.0000000000000E-02  5.8170515921823E-03 -6.7175038528484E-03
4  3.0000000000000E-02  1.2993907935799E-02 -1.4904359478992E-02
5  4.0000000000000E-02  2.2867170378933E-02 -2.5978565588009E-02
6  5.0000000000000E-02  3.5266928985412E-02 -3.9563104760312E-02
7  6.0000000000000E-02  4.9980950102946E-02 -5.5187821914190E-02
8  7.0000000000000E-02  6.6759167235219E-02 -7.2299947554275E-02
9  8.0000000000000E-02  8.5318979068847E-02 -9.0276510813394E-02
10  9.0000000000000E-02  1.0535124610049E-01 -1.0843838701708E-01
11  1.0000000000000E-01  1.2652686281101E-01 -1.2606569040321E-01
12  1.1000000000000E-01  1.4850377027574E-01 -1.4241419426968E-01
13  1.2000000000000E-01  1.7093426472514E-01 -1.5673243877133E-01
14  1.3000000000000E-01  1.9347245106938E-01 -1.6827917129220E-01
15  1.4000000000000E-01  2.1578168690877E-01 -1.7634075609849E-01
16  1.5000000000000E-01  2.3754186214655E-01 -1.8024818901225E-01
17  1.6000000000000E-01  2.5845636201728E-01 -1.7939335917506E-01
18  1.7000000000000E-01  2.7825856710107E-01 -1.7324421349240E-01
19  1.8000000000000E-01  2.9671775260511E-01 -1.6135849982046E-01
20  1.9000000000000E-01  3.1364426070094E-01 -1.4339579199802E-01
21  2.0000000000000E-01  3.2889383378976E-01 -1.1912753292885E-01
22  2.1000000000000E-01  3.4237101296305E-01 -8.8444870455915E-02
23  2.2000000000000E-01  3.5403152431796E-01 -5.1364104002027E-02
24  2.3000000000000E-01  3.6388359582215E-01 -8.0296070498250E-03
25  2.4000000000000E-01  3.7198816871537E-01  4.1285859410513E-02
26  2.5000000000000E-01  3.7845798957022E-01  9.6183475297306E-02
27  2.6000000000000E-01  3.8345559168189E-01  1.5614331153747E-01
28  2.7000000000000E-01  3.8719019697424E-01  2.2053182872653E-01
29  2.8000000000000E-01  3.8991359165353E-01  2.8861179938889E-01
30  2.9000000000000E-01  3.9191504997653E-01  3.5955447917676E-01
31  3.0000000000000E-01  3.9351540030369E-01  4.3245380576815E-01
32  3.1000000000000E-01  3.9506034568490E-01  5.0634236170354E-01
33  3.2000000000000E-01  3.9691316720785E-01  5.8020879979833E-01
34  3.3000000000000E-01  3.9944695189969E-01  6.5301639785339E-01
35  3.4000000000000E-01  4.0303649782930E-01  7.2372238382377E-01
36  3.5000000000000E-01  4.0805005697774E-01  7.9129765393998E-01
37  3.6000000000000E-01  4.1484108125243E-01  8.5474649492218E-01
38  3.7000000000000E-01  4.2374013859902E-01  9.1312591765976E-01
39  3.8000000000000E-01  4.3504716445821E-01  9.6556421367750E-01
40  3.9000000000000E-01  4.4902420883222E-01  1.0112783573547E+00
41  4.0000000000000E-01  4.6588883103706E-01  1.0495898960384E+00
42  4.1000000000000E-01  4.8580828295892E-01  1.0799389965781E+00
43  4.2000000000000E-01  5.0889460749809E-01  1.1018963499521E+00
44  4.3000000000000E-01  5.3520076212669E-01  1.1151726749593E+00
45  4.4000000000000E-01  5.6471785840936E-01  1.1196256067030E+00
46  4.5000000000000E-01  5.9737358729272E-01  1.1152638049621E+00
47  4.6000000000000E-01  6.3303187735237E-01  1.1022481706146E+00
48  4.7000000000000E-01  6.7149380942110E-01  1.0808901140360E+00
49  4.8000000000000E-01  7.1249978656270E-01  1.0516468767932E+00
50  4.9000000000000E-01  7.5573293367018E-01  1.0151139658718E+00
51  5.0000000000000E-01  8.0082367653376E-01  9.7201481700743E-01
52  5.1000000000000E-01  8.4735542652017E-01  9.2318785930632E-01
53  5.2000000000000E-01  8.9487127449594E-01  8.6957120614610E-01
54  5.3000000000000E-01  9.4288157676366E-01  8.1218524629256E-01
55  5.4000000000000E-01  9.9087229697980E-01  7.5211345326284E-01
56  5.5000000000000E-01  1.0383139516712E+00  6.9048176931045E-01
57  5.6000000000000E-01  1.0846709934041E+00  6.2843695220342E-01
58  5.7000000000000E-01  1.1294114551762E+00  5.6712429753305E-01
59  5.8000000000000E-01  1.1720166724267E+00  5.0766516608206E-01
60  5.9000000000000E-01  1.2119908953724E+00  4.5113475439545E-01
61  6.0000000000000E-01  1.2488706042732E+00  3.9854054688613E-01
62  6.1000000000000E-01  1.2822333437587E+00  3.5080187948628E-01
63  6.2000000000000E-01  1.3117058994623E+00  3.0873102809596E-01
64  6.3000000000000E-01  1.3369716508289E+00  2.7301621012511E-01
65  6.4000000000000E-01  1.3577769478941E+00  2.4420685467191E-01
66  6.5000000000000E-01  1.3739363768630E+00  2.2270145688082E-01
67  6.6000000000000E-01  1.3853367991351E+00  2.0873828548039E-01
68  6.7000000000000E-01  1.3919400706818E+00  2.0238916023766E-01
69  6.8000000000000E-01  1.3937843729779E+00  2.0355645903936E-01
70  6.9000000000000E-01  1.3909841125755E+00  2.1197345356380E-01
71  7.0000000000000E-01  1.3837283734026E+00  2.2720800917541E-01
72  7.1000000000000E-01  1.3722779334634E+00  2.4866961994912E-01
73  7.2000000000000E-01  1.3569608852965E+00  2.7561968484404E-01
74  7.3000000000000E-01  1.3381669267623E+00  3.0718486723826E-01
75  7.4000000000000E-01  1.3163404149815E+00  3.4237331855580E-01
76  7.5000000000000E-01  1.2919723009938E+00  3.8009348875243E-01
77  7.6000000000000E-01  1.2655910854796E+00  4.1917519314397E-01
78  7.7000000000000E-01  1.2377529562224E+00  4.5839255751905E-01
79  7.8000000000000E-01  1.2090312854727E+00  4.9648842265197E-01
80  7.9000000000000E-01  1.1800056796477E+00  5.3219975607193E-01
81  8.0000000000000E-01  1.1512507845540E+00  5.6428359396737E-01
82  8.1000000000000E-01  1.1233250563157E+00  5.9154301996950E-01
83  8.2000000000000E-01  1.0967597112601E+00  6.1285268066764E-01
84  8.3000000000000E-01  1.0720480670508E+00  6.2718334028522E-01
85  8.4000000000000E-01  1.0496354823575E+00  6.3362498903632E-01
86  8.5000000000000E-01  1.0299100933543E+00  6.3140804115291E-01
87  8.6000000000000E-01  1.0131945324877E+00  6.1992218910642E-01
88  8.7000000000000E-01  9.9973879845435E-01  5.9873251965307E-01
89  8.8000000000000E-01  9.8971442645954E-01  5.6759254434895E-01
90  8.9000000000000E-01  9.8321008493420E-01  5.2645385129169E-01
91  9.0000000000000E-01  9.8022869937967E-01  4.7547214509146E-01
92  9.1000000000000E-01  9.8068617634550E-01  4.1500950736856E-01
93  9.2000000000000E-01  9.8441177123136E-01  3.4563277922865E-01
94  9.3000000000000E-01  9.9115011318104E-01  2.6810803890309E-01
95  9.4000000000000E-01  1.0005648693707E+00  1.8339122072969E-01
96  9.5000000000000E-01  1.0122440000656E+00  9.2614994518772E-02
97  9.6000000000000E-01  1.0257065255168E+00 -2.9279042822466E-03
98  9.7000000000000E-01  1.0404106966687E+00 -1.0180463469651E-01
99  9.8000000000000E-01  1.0557634343016E+00 -2.0246517732118E-01
100  9.9000000000000E-01  1.0711308761857E+00 -3.0326784622814E-01
101  1.0000000000000E+00  1.0858498495496E+00 -4.0250695111477E-01
102  1.0100000000000E+00  1.0992400671156E+00 -4.9844213040833E-01
103  1.0200000000000E+00  1.1106168294986E+00 -5.8932883978404E-01
104  1.0300000000000E+00  1.1193040052430E+00 -6.7344945358111E-01
105  1.0400000000000E+00  1.1246470523978E+00 -7.4914441942840E-01
106  1.0500000000000E+00  1.1260258424928E+00 -8.1484289944935E-01
107  1.0600000000000E+00  1.1228670491590E+00 -8.6909233489022E-01
108  1.0700000000000E+00  1.1146558694224E+00 -9.1058638489538E-01
109  1.0800000000000E+00  1.1009468558550E+00 -9.3819071432527E-01
110  1.0900000000000E+00  1.0813736520365E+00 -9.5096613940911E-01
111  1.1000000000000E+00  1.0556574420738E+00 -9.4818868339789E-01
112  1.1100000000000E+00  1.0236139467235E+00 -9.2936614603424E-01
113  1.1200000000000E+00  9.8515882380489E-01 -8.9425085019913E-01
114  1.1300000000000E+00  9.4031135840332E-01 -8.4284829493573E-01
115  1.1400000000000E+00  8.8919635855533E-01 -7.7542151551803E-01
116  1.1500000000000E+00  8.3204420393026E-01 -6.9249102654602E-01
117  1.1600000000000E+00  7.6918902810276E-01 -5.9483030234959E-01
118  1.1700000000000E+00  7.0106504849973E-01 -4.8345682825316E-01
119  1.1800000000000E+00  6.2820109170647E-01 -3.5961883580875E-01
120  1.1900000000000E+00  5.5121339448643E-01 -2.2477791247723E-01
121  1.2000000000000E+00  4.7079679254206E-01 -8.0587751284379E-02
122  1.2100000000000E+00  3.8771443853247E-01  7.1130624111742E-02
123  1.2200000000000E+00  3.0278621819807E-01  2.2841675864434E-01
124  1.2300000000000E+00  2.1687605768144E-01  3.8920133147322E-01
125  1.2400000000000E+00  1.3087833603808E-01  5.5133888040584E-01
126  1.2500000000000E+00  4.5703634136509E-02  7.1264213642418E-01
127  1.2600000000000E+00 -3.7735935845120E-02  8.7091738845831E-01
128  1.2700000000000E+00 -1.1854156733984E-01  1.0240002773087E+00
129  1.2800000000000E+00 -1.9584250551912E-01  1.1697914070899E+00
130  1.2900000000000E+00 -2.6881044573993E-01  1.3062911627416E+00
131  1.3000000000000E+00 -3.3667333232741E-01  1.4316331330888E+00
132  1.3100000000000E+00 -3.9872831513078E-01  1.5441155605019E+00
133  1.3200000000000E+00 -4.5435363499994E-01  1.6422302698624E+00