Pr    ONCVPSP-4.0.1  r_core=   2.01067   1.60183   1.90528   1.60183
59.0000     13.0000      250707    zatom,zion,pspd
8      11   3     4   600     0    pspcod,pspxc,lmax,lloc,mmax,r2well
5.99000000 54.00000000  0.00000000    rchrg fchrg qchrg
2     2     2     2     0    nproj
1     1           extension_switch
0                         7.2755338238307E+00  4.4705557816095E-01
1  0.0000000000000E+00  5.8336890873534E-11 -2.6286939291964E-10
2  1.0000000000000E-02  3.3925623989263E-02 -2.4175529583529E-03
3  2.0000000000000E-02  6.7847120038953E-02 -4.8864789779963E-03
4  3.0000000000000E-02  1.0176017731762E-01 -7.4574864490234E-03
5  4.0000000000000E-02  1.3566012092169E-01 -1.0179961200245E-02
6  5.0000000000000E-02  1.6954173410365E-01 -1.3101322103993E-02
7  6.0000000000000E-02  2.0339908557563E-01 -1.6266396755606E-02
8  7.0000000000000E-02  2.3722536351129E-01 -1.9716823608007E-02
9  8.0000000000000E-02  2.7101271781046E-01 -2.3490486678958E-02
10  9.0000000000000E-02  3.0475211211908E-01 -2.7620988624861E-02
11  1.0000000000000E-01  3.3843318701217E-01 -3.2137167593476E-02
12  1.1000000000000E-01  3.7204413565025E-01 -3.7062662832325E-02
13  1.2000000000000E-01  4.0557159311126E-01 -4.2415533544260E-02
14  1.3000000000000E-01  4.3900054048123E-01 -4.8207934950952E-02
15  1.4000000000000E-01  4.7231422465848E-01 -5.4445854954717E-02
16  1.5000000000000E-01  5.0549409469018E-01 -6.1128914184204E-02
17  1.6000000000000E-01  5.3851975531616E-01 -6.8250231575873E-02
18  1.7000000000000E-01  5.7136893824618E-01 -7.5796356987670E-02
19  1.8000000000000E-01  6.0401749154332E-01 -8.3747271669606E-02
20  1.9000000000000E-01  6.3643938732928E-01 -9.2076456735116E-02
21  2.0000000000000E-01  6.6860674786986E-01 -1.0075102909341E-01
22  2.1000000000000E-01  7.0048988993975E-01 -1.0973194362405E-01
23  2.2000000000000E-01  7.3205738720929E-01 -1.1897425970611E-01
24  2.3000000000000E-01  7.6327615024049E-01 -1.2842746956379E-01
25  2.4000000000000E-01  7.9411152352947E-01 -1.3803588526315E-01
26  2.5000000000000E-01  8.2452739888655E-01 -1.4773908059825E-01
27  2.6000000000000E-01  8.5448634430666E-01 -1.5747238354472E-01
28  2.7000000000000E-01  8.8394974735124E-01 -1.6716741444025E-01
29  2.8000000000000E-01  9.1287797194084E-01 -1.7675266458092E-01
30  2.9000000000000E-01  9.4123052734534E-01 -1.8615410950297E-01
31  3.0000000000000E-01  9.6896624805716E-01 -1.9529585085737E-01
32  3.1000000000000E-01  9.9604348314383E-01 -2.0410078048253E-01
33  3.2000000000000E-01  1.0224202935992E+00 -2.1249126004134E-01
34  3.3000000000000E-01  1.0480546561486E+00 -2.2038980941672E-01
35  3.4000000000000E-01  1.0729046719148E+00 -2.2771979695499E-01
36  3.5000000000000E-01  1.0969287783144E+00 -2.3440612461157E-01
37  3.6000000000000E-01  1.1200859625333E+00 -2.4037590108810E-01
38  3.7000000000000E-01  1.1423359749254E+00 -2.4555909615549E-01
39  3.8000000000000E-01  1.1636395406839E+00 -2.4988916953100E-01
40  3.9000000000000E-01  1.1839585681579E+00 -2.5330366791964E-01
41  4.0000000000000E-01  1.2032563522246E+00 -2.5574478413725E-01
42  4.1000000000000E-01  1.2214977711772E+00 -2.5715987260306E-01
43  4.2000000000000E-01  1.2386494756501E+00 -2.5750191591882E-01
44  4.3000000000000E-01  1.2546800681830E+00 -2.5672993773624E-01
45  4.4000000000000E-01  1.2695602721096E+00 -2.5480935764979E-01
46  4.5000000000000E-01  1.2832630885568E+00 -2.5171228443247E-01
47  4.6000000000000E-01  1.2957639404511E+00 -2.4741774455246E-01
48  4.7000000000000E-01  1.3070408025406E+00 -2.4191184356233E-01
49  4.8000000000000E-01  1.3170743165734E+00 -2.3518785863359E-01
50  4.9000000000000E-01  1.3258478908984E+00 -2.2724626121054E-01
51  5.0000000000000E-01  1.3333477838954E+00 -2.1809466947140E-01
52  5.1000000000000E-01  1.3395631707793E+00 -2.0774773100616E-01
53  5.2000000000000E-01  1.3444861934686E+00 -1.9622693683845E-01
54  5.3000000000000E-01  1.3481119933491E+00 -1.8356036863050E-01
55  5.4000000000000E-01  1.3504387269115E+00 -1.6978238160349E-01
56  5.5000000000000E-01  1.3514675643804E+00 -1.5493322637840E-01
57  5.6000000000000E-01  1.3512026715935E+00 -1.3905861358265E-01
58  5.7000000000000E-01  1.3496511755226E+00 -1.2220922567284E-01
59  5.8000000000000E-01  1.3468231139604E+00 -1.0444018098539E-01
60  5.9000000000000E-01  1.3427313700157E+00 -8.5810455538941E-02
61  6.0000000000000E-01  1.3373915921785E+00 -6.6382268570652E-02
62  6.1000000000000E-01  1.3308221008189E+00 -4.6220438186494E-02
63  6.2000000000000E-01  1.3230437820833E+00 -2.5391713840934E-02
64  6.3000000000000E-01  1.3140799702334E+00 -3.9640926285316E-03
65  6.4000000000000E-01  1.3039563195519E+00  1.7993873432428E-02
66  6.5000000000000E-01  1.2927006669994E+00  4.0413771819823E-02
67  6.6000000000000E-01  1.2803428868567E+00  6.3228018275541E-02
68  6.7000000000000E-01  1.2669147386283E+00  8.6370532589645E-02
69  6.8000000000000E-01  1.2524497095043E+00  1.0977739416745E-01
70  6.9000000000000E-01  1.2369828526948E+00  1.3338747031831E-01
71  7.0000000000000E-01  1.2205506229477E+00  1.5714301044846E-01
72  7.1000000000000E-01  1.2031907105525E+00  1.8099019965359E-01
73  7.2000000000000E-01  1.1849418751059E+00  2.0487966558700E-01
74  7.3000000000000E-01  1.1658437802837E+00  2.2876693292029E-01
75  7.4000000000000E-01  1.1459368308142E+00  2.5261282021426E-01
76  7.5000000000000E-01  1.1252620127959E+00  2.7638377456962E-01
77  7.6000000000000E-01  1.1038607384369E+00  3.0005214002652E-01
78  7.7000000000000E-01  1.0817746962193E+00  3.2359635632220E-01
79  7.8000000000000E-01  1.0590457074159E+00  3.4700108529017E-01
80  7.9000000000000E-01  1.0357155897960E+00  3.7025726288501E-01
81  8.0000000000000E-01  1.0118260292705E+00  3.9336207553903E-01
82  8.1000000000000E-01  9.8741846012960E-01  4.1631886028944E-01
83  8.2000000000000E-01  9.6253395443015E-01  4.3913692885454E-01
84  8.3000000000000E-01  9.3721312099119E-01  4.6183131657288E-01
85  8.4000000000000E-01  9.1149601435626E-01  4.8442245784669E-01
86  8.5000000000000E-01  8.8542205398377E-01  5.0693579044101E-01
87  8.6000000000000E-01  8.5902995382935E-01  5.2940129167571E-01
88  8.7000000000000E-01  8.3235766239052E-01  5.5185295020541E-01
89  8.8000000000000E-01  8.0544231319347E-01  5.7432817770237E-01
90  8.9000000000000E-01  7.7832018561583E-01  5.9686716533704E-01
91  9.0000000000000E-01  7.5102667585830E-01  6.1951219048542E-01
92  9.1000000000000E-01  7.2359627780258E-01  6.4230687957484E-01
93  9.2000000000000E-01  6.9606257342376E-01  6.6529543341094E-01
94  9.3000000000000E-01  6.6845823236232E-01  6.8852182170188E-01
95  9.4000000000000E-01  6.4081502020414E-01  7.1202895381232E-01
96  9.5000000000000E-01  6.1316381496721E-01  7.3585783303687E-01
97  9.6000000000000E-01  5.8553463124986E-01  7.6004670188028E-01
98  9.7000000000000E-01  5.5795665145802E-01  7.8463018597165E-01
99  9.8000000000000E-01  5.3045826349722E-01  8.0963844432104E-01
100  9.9000000000000E-01  5.0306710428887E-01  8.3509633365483E-01
101  1.0000000000000E+00  4.7581010844838E-01  8.6102259453900E-01
102  1.0100000000000E+00  4.4871356144534E-01  8.8742906692623E-01
103  1.0200000000000E+00  4.2180315655127E-01  9.1431994264044E-01
104  1.0300000000000E+00  3.9510405486842E-01  9.4169106215315E-01
105  1.0400000000000E+00  3.6864094772277E-01  9.6952926280615E-01
106  1.0500000000000E+00  3.4243812069412E-01  9.9781178540697E-01
107  1.0600000000000E+00  3.1651951854627E-01  1.0265057458665E+00
108  1.0700000000000E+00  2.9090881030890E-01  1.0555676782697E+00
109  1.0800000000000E+00  2.6562945374956E-01  1.0849431554765E+00
110  1.0900000000000E+00  2.4070475845852E-01  1.1145664930374E+00
111  1.1000000000000E+00  2.1615794675002E-01  1.1443605418972E+00
112  1.1100000000000E+00  1.9201221156132E-01  1.1742365750293E+00
113  1.1200000000000E+00  1.6829077050381E-01  1.2040942728223E+00
114  1.1300000000000E+00  1.4501691519049E-01  1.2338218117079E+00
115  1.1400000000000E+00  1.2221405492950E-01  1.2632960601907E+00
116  1.1500000000000E+00  9.9905753835530E-02  1.2923828861066E+00
117  1.1600000000000E+00  7.8115760370389E-02  1.3209375786024E+00
118  1.1700000000000E+00  5.6868028281649E-02  1.3488053879807E+00
119  1.1800000000000E+00  3.6186727864843E-02  1.3758221862031E+00
120  1.1900000000000E+00  1.6096246433098E-02  1.4018152504634E+00
121  1.2000000000000E+00 -3.3788231615318E-03  1.4266041718425E+00
122  1.2100000000000E+00 -2.2213707144499E-02  1.4500018906165E+00
123  1.2200000000000E+00 -4.0383489788641E-02  1.4718158592955E+00
124  1.2300000000000E+00 -5.7863167968783E-02  1.4918493339247E+00
125  1.2400000000000E+00 -7.4627722533350E-02  1.5099027935424E+00
126  1.2500000000000E+00 -9.0652207708971E-02  1.5257754869659E+00
127  1.2600000000000E+00 -1.0591185971552E-01  1.5392671052369E+00
128  1.2700000000000E+00 -1.2038222570453E-01  1.5501795770777E+00
129  1.2800000000000E+00 -1.3403931403790E-01  1.5583189835785E+00
130  1.2900000000000E+00 -1.4685976679258E-01  1.5634975870151E+00
131  1.3000000000000E+00 -1.5882105520363E-01  1.5655359671764E+00
132  1.3100000000000E+00 -1.6990169853750E-01  1.5642652568101E+00
133  1.3200000000000E+00 -1.8008150661459E-01  1.5595294657749E+00
134  1.3300000000000E+00 -1.8934184586813E-01  1.5511878811625E+00
135  1.3400000000000E+00 -1.9766592842741E-01  1.5391175279984E+00
136  1.3500000000000E+00 -2.0503912324300E-01  1.5232156721146E+00
137  1.3600000000000E+00 -2.1144928772340E-01  1.5034023433877E+00
138  1.3700000000000E+00 -2.1688711771483E-01  1.4796228536855E+00
139  1.3800000000000E+00 -2.2134651292627E-01  1.4518502795534E+00
140  1.3900000000000E+00 -2.2482495407097E-01  1.4200878748533E+00
141  1.4000000000000E+00 -2.2732388705505E-01  1.3843713732021E+00
142  1.4100000000000E+00 -2.2884910848835E-01  1.3447711341027E+00
143  1.4200000000000E+00 -2.2941114560664E-01  1.3013940800579E+00
144  1.4300000000000E+00 -2.2902562238172E-01  1.2543853647077E+00
145  1.4400000000000E+00 -2.2771360213603E-01  1.2039297040363E+00
146  1.4500000000000E+00 -2.2550189536782E-01  1.1502522939353E+00
147  1.4600000000000E+00 -2.2242331972985E-01  1.0936192278694E+00
148  1.4700000000000E+00 -2.1851689715541E-01  1.0343373179004E+00
149  1.4800000000000E+00 -2.1382797101475E-01  9.7275321100617E-01
150  1.4900000000000E+00 -2.0840822387295E-01  9.0925168027379E-01
151  1.5000000000000E+00 -2.0231557391275E-01  8.4425295718114E-01
152  1.5100000000000E+00 -1.9561392536538E-01  7.7820895671210E-01
153  1.5200000000000E+00 -1.8837274534634E-01  7.1159823140772E-01
154  1.5300000000000E+00 -1.8066643632657E-01  6.4491947366695E-01
155  1.5400000000000E+00 -1.7257347002755E-01  5.7868336737580E-01
156  1.5500000000000E+00 -1.6417524485589E-01  5.1340257050271E-01
157  1.5600000000000E+00 -1.5555462502773E-01  4.4957958931435E-01
158  1.5700000000000E+00 -1.4679411528480E-01  3.8769228239085E-01
159  1.5800000000000E+00 -1.3797361948934E-01  3.2817669892004E-01
160  1.5900000000000E+00 -1.2916772856136E-01  2.7140695070346E-01
161  1.6000000000000E+00 -1.2044252098552E-01  2.1767216169261E-01
162  1.6100000000000E+00 -1.1185183099573E-01  1.6715036506336E-01
163  1.6200000000000E+00 -1.0343902621332E-01  1.1993332127965E-01
164  1.6300000000000E+00 -9.5242760560460E-02  7.6083404934932E-02
165  1.6400000000000E+00 -8.7298185946880E-02  3.5645677866910E-02
166  1.6500000000000E+00 -7.9636735024533E-02 -1.3535170331688E-03
167  1.6600000000000E+00 -7.2286061200580E-02 -3.4906602569309E-02
168  1.6700000000000E+00 -6.5269984271235E-02 -6.5024886083124E-02
169  1.6800000000000E+00 -5.8608465248112E-02 -9.1738526180031E-02
170  1.6900000000000E+00 -5.2317610593768E-02 -1.1509634758263E-01
171  1.7000000000000E+00 -4.6409705632165E-02 -1.3516550660079E-01
172  1.7100000000000E+00 -4.0893276925477E-02 -1.5203100840327E-01
173  1.7200000000000E+00 -3.5773183204529E-02 -1.6579507821101E-01
174  1.7300000000000E+00 -3.1050734151555E-02 -1.7657639016779E-01
175  1.7400000000000E+00 -2.6723836077104E-02 -1.8450915901654E-01
176  1.7500000000000E+00 -2.2787163332498E-02 -1.8974210066385E-01
177  1.7600000000000E+00 -1.9232354021260E-02 -1.9243726930110E-01
178  1.7700000000000E+00 -1.6048228381113E-02 -1.9276877968900E-01
179  1.7800000000000E+00 -1.3221027978005E-02 -1.9092142447972E-01
180  1.7900000000000E+00 -1.0734673680312E-02 -1.8708919732125E-01
181  1.8000000000000E+00 -8.5710402011740E-03 -1.8147373345342E-01
182  1.8100000000000E+00 -6.7102448202278E-03 -1.7428268047918E-01
183  1.8200000000000E+00 -5.1309477936196E-03 -1.6572801246515E-01
184  1.8300000000000E+00 -3.8106618219145E-03 -1.5602430131112E-01
185  1.8400000000000E+00 -2.7260679029076E-03 -1.4538695947291E-01
186  1.8500000000000E+00 -1.8533346389187E-03 -1.3403046979912E-01
187  1.8600000000000E+00 -1.1684383811217E-03 -1.2216661599458E-01
188  1.8700000000000E+00 -6.4748196654452E-04 -1.1000272458384E-01
189  1.8800000000000E+00 -2.6700487424758E-04 -9.7739958707170E-02
190  1.8900000000000E+00 -4.3049674043492E-06 -8.5571575483265E-02
191  1.9000000000000E+00  1.6231862939193E-04 -7.3681505730304E-02
192  1.9100000000000E+00  2.5313906508839E-04 -6.2242286823898E-02
193  1.9200000000000E+00  2.8509281779988E-04 -5.1407202020361E-02
194  1.9300000000000E+00  2.7353200383362E-04 -4.1316510779825E-02
195  1.9400000000000E+00  2.3470088080620E-04 -3.2106728780230E-02
196  1.9500000000000E+00  1.8220668470600E-04 -2.3896969908679E-02
197  1.9600000000000E+00  1.2710727512884E-04 -1.6788928363080E-02
198  1.9700000000000E+00  7.7698938107620E-05 -1.0865793471551E-02
199  1.9800000000000E+00  3.9390352566763E-05 -6.1935830287089E-03
200  1.9900000000000E+00  1.4604308563298E-05 -2.8015300202735E-03
201  2.0000000000000E+00  2.7601707882276E-06 -7.5689026877666E-04
202  2.0100000000000E+00  2.8950039166006E-08 -1.6372705271632E-05
203  2.0200000000000E+00 -2.6258959474748E-08  2.2350963185400E-05
204  2.0300000000000E+00  3.2655457822142E-08 -1.2679891158119E-05
205  2.04 -0.  0.
206  2.05 -0. -0.
207  2.06  0.  0.
208  2.07  0.  0.
209  2.08  0.  0.
210  2.09  0.  0.
211  2.10  0.  0.
212  2.11  0.  0.
213  2.12  0.  0.
214  2.13  0.  0.
215  2.14  0.  0.
216  2.15  0.  0.
217  2.16  0.  0.
218  2.17  0.  0.
219  2.18  0.  0.
220  2.19  0.  0.
221  2.20  0.  0.
222  2.21  0.  0.
223  2.22  0.  0.
224  2.23  0.  0.
225  2.24  0.  0.
226  2.25  0.  0.
227  2.26  0.  0.
228  2.27  0.  0.
229  2.28  0.  0.
230  2.29  0.  0.
231  2.30  0.  0.
232  2.31  0.  0.
233  2.32  0.  0.
234  2.33  0.  0.
235  2.34  0.  0.
236  2.35  0.  0.
237  2.36  0.  0.
238  2.37  0.  0.
239  2.38  0.  0.
240  2.39  0.  0.
241  2.40  0.  0.
242  2.41  0.  0.
243  2.42  0.  0.
244  2.43  0.  0.
245  2.44  0.  0.
246  2.45  0.  0.
247  2.46  0.  0.
248  2.47  0.  0.
249  2.48  0.  0.
250  2.49  0.  0.
251  2.50  0.  0.
252  2.51  0.  0.
253  2.52  0.  0.
254  2.53  0.  0.
255  2.54  0.  0.
256  2.55  0.  0.
257  2.56  0.  0.
258  2.57  0.  0.
259  2.58  0.  0.
260  2.59  0.  0.
261  2.60  0.  0.
262  2.61  0.  0.
263  2.62  0.  0.
264  2.63  0.  0.
265  2.64  0.  0.
266  2.65  0.  0.
267  2.66  0.  0.
268  2.67  0.  0.
269  2.68  0.  0.
270  2.69  0.  0.
271  2.70  0.  0.
272  2.71  0.  0.
273  2.72  0.  0.
274  2.73  0.  0.
275  2.74  0.  0.
276  2.75  0.  0.
277  2.76  0.  0.
278  2.77  0.  0.
279  2.78  0.  0.
280  2.79  0.  0.
281  2.80  0.  0.
282  2.81  0.  0.
283  2.82  0.  0.
284  2.83  0.  0.
285  2.84  0.  0.
286  2.85  0.  0.
287  2.86  0.  0.
288  2.87  0.  0.
289  2.88  0.  0.
290  2.89  0.  0.
291  2.90  0.  0.
292  2.91  0.  0.
293  2.92  0.  0.
294  2.93  0.  0.
295  2.94  0.  0.
296  2.95  0.  0.
297  2.96  0.  0.
298  2.97  0.  0.
299  2.98  0.  0.
300  2.99  0.  0.
301  3.00  0.  0.
302  3.01  0.  0.
303  3.02  0.  0.
304  3.03  0.  0.
305  3.04  0.  0.
306  3.05  0.  0.
307  3.06  0.  0.
308  3.07  0.  0.
309  3.08  0.  0.
310  3.09  0.  0.
311  3.10  0.  0.
312  3.11  0.  0.
313  3.12  0.  0.
314  3.13  0.  0.
315  3.14  0.  0.
316  3.15  0.  0.
317  3.16  0.  0.
318  3.17  0.  0.
319  3.18  0.  0.
320  3.19  0.  0.
321  3.20  0.  0.
322  3.21  0.  0.
323  3.22  0.  0.
324  3.23  0.  0.
325  3.24  0.  0.
326  3.25  0.  0.
327  3.26  0.  0.
328  3.27  0.  0.
329  3.28  0.  0.
330  3.29  0.  0.
331  3.30  0.  0.
332  3.31  0.  0.
333  3.32  0.  0.
334  3.33  0.  0.
335  3.34  0.  0.
336  3.35  0.  0.
337  3.36  0.  0.
338  3.37  0.  0.
339  3.38  0.  0.
340  3.39  0.  0.
341  3.40  0.  0.
342  3.41  0.  0.
343  3.42  0.  0.
344  3.43  0.  0.
345  3.44  0.  0.
346  3.45  0.  0.
347  3.46  0.  0.
348  3.47  0.  0.
349  3.48  0.  0.
350  3.49  0.  0.
351  3.50  0.  0.
352  3.51  0.  0.
353  3.52  0.  0.
354  3.53  0.  0.
355  3.54  0.  0.
356  3.55  0.  0.
357  3.56  0.  0.
358  3.57  0.  0.
359  3.58  0.  0.
360  3.59  0.  0.
361  3.60  0.  0.
362  3.61  0.  0.
363  3.62  0.  0.
364  3.63  0.  0.
365  3.64  0.  0.
366  3.65  0.  0.
367  3.66  0.  0.
368  3.67  0.  0.
369  3.68  0.  0.
370  3.69  0.  0.
371  3.70  0.  0.
372  3.71  0.  0.
373  3.72  0.  0.
374  3.73  0.  0.
375  3.74  0.  0.
376  3.75  0.  0.
377  3.76  0.  0.
378  3.77  0.  0.
379  3.78  0.  0.
380  3.79  0.  0.
381  3.80  0.  0.
382  3.81  0.  0.
383  3.82  0.  0.
384  3.83  0.  0.
385  3.84  0.  0.
386  3.85  0.  0.
387  3.86  0.  0.
388  3.87  0.  0.
389  3.88  0.  0.
390  3.89  0.  0.
391  3.90  0.  0.
392  3.91  0.  0.
393  3.92  0.  0.
394  3.93  0.  0.
395  3.94  0.  0.
396  3.95  0.  0.
397  3.96  0.  0.
398  3.97  0.  0.
399  3.98  0.  0.
400  3.99  0.  0.
401  4.00  0.  0.
402  4.01  0.  0.
403  4.02  0.  0.
404  4.03  0.  0.
405  4.04  0.  0.
406  4.05  0.  0.
407  4.06  0.  0.
408  4.07  0.  0.
409  4.08  0.  0.
410  4.09  0.  0.
411  4.10  0.  0.
412  4.11  0.  0.
413  4.12  0.  0.
414  4.13  0.  0.
415  4.14  0.  0.
416  4.15  0.  0.
417  4.16  0.  0.
418  4.17  0.  0.
419  4.18  0.  0.
420  4.19  0.  0.
421  4.20  0.  0.
422  4.21  0.  0.
423  4.22  0.  0.
424  4.23  0.  0.
425  4.24  0.  0.
426  4.25  0.  0.
427  4.26  0.  0.
428  4.27  0.  0.
429  4.28  0.  0.
430  4.29  0.  0.
431  4.30  0.  0.
432  4.31  0.  0.
433  4.32  0.  0.
434  4.33  0.  0.
435  4.34  0.  0.
436  4.35  0.  0.
437  4.36  0.  0.
438  4.37  0.  0.
439  4.38  0.  0.
440  4.39  0.  0.
441  4.40  0.  0.
442  4.41  0.  0.
443  4.42  0.  0.
444  4.43  0.  0.
445  4.44  0.  0.
446  4.45  0.  0.
447  4.46  0.  0.
448  4.47  0.  0.
449  4.48  0.  0.
450  4.49  0.  0.
451  4.50  0.  0.
452  4.51  0.  0.
453  4.52  0.  0.
454  4.53  0.  0.
455  4.54  0.  0.
456  4.55  0.  0.
457  4.56  0.  0.
458  4.57  0.  0.
459  4.58  0.  0.
460  4.59  0.  0.
461  4.60  0.  0.
462  4.61  0.  0.
463  4.62  0.  0.
464  4.63  0.  0.
465  4.64  0.  0.
466  4.65  0.  0.
467  4.66  0.  0.
468  4.67  0.  0.
469  4.68  0.  0.
470  4.69  0.  0.
471  4.70  0.  0.
472  4.71  0.  0.
473  4.72  0.  0.
474  4.73  0.  0.
475  4.74  0.  0.
476  4.75  0.  0.
477  4.76  0.  0.
478  4.77  0.  0.
479  4.78  0.  0.
480  4.79  0.  0.
481  4.80  0.  0.
482  4.81  0.  0.
483  4.82  0.  0.
484  4.83  0.  0.
485  4.84  0.  0.
486  4.85  0.  0.
487  4.86  0.  0.
488  4.87  0.  0.
489  4.88  0.  0.
490  4.89  0.  0.
491  4.90  0.  0.
492  4.91  0.  0.
493  4.92  0.  0.
494  4.93  0.  0.
495  4.94  0.  0.
496  4.95  0.  0.
497  4.96  0.  0.
498  4.97  0.  0.
499  4.98  0.  0.
500  4.99  0.  0.
501  5.00  0.  0.
502  5.01  0.  0.
503  5.02  0.  0.
504  5.03  0.  0.
505  5.04  0.  0.
506  5.05  0.  0.
507  5.06  0.  0.
508  5.07  0.  0.
509  5.08  0.  0.
510  5.09  0.  0.
511  5.10  0.  0.
512  5.11  0.  0.
513  5.12  0.  0.
514  5.13  0.  0.
515  5.14  0.  0.
516  5.15  0.  0.
517  5.16  0.  0.
518  5.17  0.  0.
519  5.18  0.  0.
520  5.19  0.  0.
521  5.20  0.  0.
522  5.21  0.  0.
523  5.22  0.  0.
524  5.23  0.  0.
525  5.24  0.  0.
526  5.25  0.  0.
527  5.26  0.  0.
528  5.27  0.  0.
529  5.28  0.  0.
530  5.29  0.  0.
531  5.30  0.  0.
532  5.31  0.  0.
533  5.32  0.  0.
534  5.33  0.  0.
535  5.34  0.  0.
536  5.35  0.  0.
537  5.36  0.  0.
538  5.37  0.  0.
539  5.38  0.  0.
540  5.39  0.  0.
541  5.40  0.  0.
542  5.41  0.  0.
543  5.42  0.  0.
544  5.43  0.  0.
545  5.44  0.  0.
546  5.45  0.  0.
547  5.46  0.  0.
548  5.47  0.  0.
549  5.48  0.  0.
550  5.49  0.  0.
551  5.50  0.  0.
552  5.51  0.  0.
553  5.52  0.  0.
554  5.53  0.  0.
555  5.54  0.  0.
556  5.55  0.  0.
557  5.56  0.  0.
558  5.57  0.  0.
559  5.58  0.  0.
560  5.59  0.  0.
561  5.60  0.  0.
562  5.61  0.  0.
563  5.62  0.  0.
564  5.63  0.  0.
565  5.64  0.  0.
566  5.65  0.  0.
567  5.66  0.  0.
568  5.67  0.  0.
569  5.68  0.  0.
570  5.69  0.  0.
571  5.70  0.  0.
572  5.71  0.  0.
573  5.72  0.  0.
574  5.73  0.  0.
575  5.74  0.  0.
576  5.75  0.  0.
577  5.76  0.  0.
578  5.77  0.  0.
579  5.78  0.  0.
580  5.79  0.  0.
581  5.80  0.  0.
582  5.81  0.  0.
583  5.82  0.  0.
584  5.83  0.  0.
585  5.84  0.  0.
586  5.85  0.  0.
587  5.86  0.  0.
588  5.87  0.  0.
589  5.88  0.  0.
590  5.89  0.  0.
591  5.90  0.  0.
592  5.91  0.  0.
593  5.92  0.  0.
594  5.93  0.  0.
595  5.94  0.  0.
596  5.95  0.  0.
597  5.96  0.  0.
598  5.97  0.  0.
599  5.98  0.  0.
600  5.99  0.  0.
1                         4.8072199900984E+00  1.6360812856161E+00
1  0.0000000000000E+00  9.9773436526562E-09 -2.1115169484415E-08
2  1.0000000000000E-02  6.5557025726123E-04  2.9454420282539E-04
3  2.0000000000000E-02  2.6105232047268E-03  1.1996473252634E-03
4  3.0000000000000E-02  5.8298635928288E-03  2.7791380231283E-03
5  4.0000000000000E-02  1.0256187498653E-02  5.1374669638751E-03
6  5.0000000000000E-02  1.5811043970738E-02  8.4168547836459E-03
7  6.0000000000000E-02  2.2396800568673E-02  1.2793385514126E-02
8  7.0000000000000E-02  2.9898973020629E-02  1.8472129675675E-02
9  8.0000000000000E-02  3.8188969244612E-02  2.5681402348368E-02
10  9.0000000000000E-02  4.7127189005163E-02  3.4666280521218E-02
11  1.0000000000000E-01  5.6566412688533E-02  4.5681520496130E-02
12  1.1000000000000E-01  6.6355406235757E-02  5.8984029748652E-02
13  1.2000000000000E-01  7.6342664306830E-02  7.4825058141963E-02
14  1.3000000000000E-01  8.6380210364856E-02  9.3442280532820E-02
15  1.4000000000000E-01  9.6327370639297E-02  1.1505194644422E-01
16  1.5000000000000E-01  1.0605443889279E-01  1.3984127252412E-01
17  1.6000000000000E-01  1.1544615058375E-01  1.6796124994721E-01
18  1.7000000000000E-01  1.2440488836055E-01  1.9952003180495E-01
19  1.8000000000000E-01  1.3285354578251E-01  2.3457705499406E-01
20  1.9000000000000E-01  1.4073798264731E-01  2.7313803735025E-01
21  2.0000000000000E-01  1.4802901319048E-01  3.1515097404282E-01
22  2.1000000000000E-01  1.5472387756066E-01  3.6050323786430E-01
23  2.2000000000000E-01  1.6084715718864E-01  4.0901986639244E-01
24  2.3000000000000E-01  1.6645110575998E-01  4.6046309548761E-01
25  2.4000000000000E-01  1.7161537925598E-01  5.1453317367682E-01
26  2.5000000000000E-01  1.7644616071348E-01  5.7087046615292E-01
27  2.6000000000000E-01  1.8107468773232E-01  6.2905883089491E-01
28  2.7000000000000E-01  1.8565520308372E-01  6.8863022331058E-01
29  2.8000000000000E-01  1.9036236079873E-01  7.4907046033744E-01
30  2.9000000000000E-01  1.9538813160104E-01  8.0982605062340E-01
31  3.0000000000000E-01  2.0093826226188E-01  8.7031197473524E-01
32  3.1000000000000E-01  2.0722835317689E-01  9.2992027877515E-01
33  3.2000000000000E-01  2.1447962699576E-01  9.8802932674601E-01
34  3.3000000000000E-01  2.2291446829646E-01  1.0440135418739E+00
35  3.4000000000000E-01  2.3275181993395E-01  1.0972534551935E+00
36  3.5000000000000E-01  2.4420252568422E-01  1.1471458712924E+00
37  3.6000000000000E-01  2.5746471105497E-01  1.1931139563877E+00
38  3.7000000000000E-01  2.7271929458574E-01  1.2346170529996E+00
39  3.8000000000000E-01  2.9012572058617E-01  1.2711600284438E+00
40  3.9000000000000E-01  3.0981800107365E-01  1.3023019711570E+00
41  4.0000000000000E-01  3.3190114971620E-01  1.3276640594115E+00
42  4.1000000000000E-01  3.5644808394344E-01  1.3469364410773E+00
43  4.2000000000000E-01  3.8349706317422E-01  1.3598839805196E+00
44  4.3000000000000E-01  4.1304972146838E-01  1.3663507491620E+00
45  4.4000000000000E-01  4.4506974201844E-01  1.3662631593221E+00
46  4.5000000000000E-01  4.7948220895634E-01  1.3596316662226E+00
47  4.6000000000000E-01  5.1617365918280E-01  1.3465509901022E+00
48  4.7000000000000E-01  5.5499284357571E-01  1.3271988386080E+00
49  4.8000000000000E-01  5.9575219325294E-01  1.3018331385793E+00
50  4.9000000000000E-01  6.3822997281851E-01  1.2707878153910E+00
51  5.0000000000000E-01  6.8217308897725E-01  1.2344671866349E+00
52  5.1000000000000E-01  7.2730050982689E-01  1.1933390645172E+00
53  5.2000000000000E-01  7.7330723778907E-01  1.1479266873942E+00
54  5.3000000000000E-01  8.1986876776905E-01  1.0987996248267E+00
55  5.4000000000000E-01  8.6664595196939E-01  1.0465638219186E+00
56  5.5000000000000E-01  9.1329018403635E-01  9.9185096707443E-01
57  5.6000000000000E-01  9.5944880807391E-01  9.3530738227168E-01
58  5.7000000000000E-01  1.0047706526739E+00  8.7758264617168E-01
59  5.8000000000000E-01  1.0489115866062E+00  8.1931816762750E-01
60  5.9000000000000E-01  1.0915399912768E+00  7.6113593020663E-01
61  6.0000000000000E-01  1.1323420455437E+00  7.0362762712667E-01
62  6.1000000000000E-01  1.1710267209987E+00  6.4734440048054E-01
63  6.2000000000000E-01  1.2073303903355E+00  5.9278738886802E-01
64  6.3000000000000E-01  1.2410209578871E+00  5.4039927369397E-01
65  6.4000000000000E-01  1.2719014296987E+00  4.9055699666953E-01
66  6.5000000000000E-01  1.2998128504870E+00  4.4356579976099E-01
67  6.6000000000000E-01  1.3246365463280E+00  3.9965471435076E-01
68  6.7000000000000E-01  1.3462956247276E+00  3.5897359914349E-01
69  6.8000000000000E-01  1.3647556976042E+00  3.2159179687232E-01
70  6.9000000000000E-01  1.3800248074172E+00  2.8749844868037E-01
71  7.0000000000000E-01  1.3921525519132E+00  2.5660447276060E-01
72  7.1000000000000E-01  1.4012284184577E+00  2.2874618104874E-01
73  7.2000000000000E-01  1.4073793543694E+00  2.0369047511077E-01
74  7.3000000000000E-01  1.4107666147816E+00  1.8114153048424E-01
75  7.4000000000000E-01  1.4115819440189E+00  1.6074884825328E-01
76  7.5000000000000E-01  1.4100431600184E+00  1.4211652416303E-01
77  7.6000000000000E-01  1.4063892236658E+00  1.2481355969320E-01
78  7.7000000000000E-01  1.4008748858054E+00  1.0838501674021E-01
79  7.8000000000000E-01  1.3937650138983E+00  9.2363798383124E-02
80  7.9000000000000E-01  1.3853287076419E+00  7.6282823043924E-02
81  8.0000000000000E-01  1.3758333181731E+00  5.9687348538112E-02
82  8.1000000000000E-01  1.3655384886190E+00  4.2147196308407E-02
83  8.2000000000000E-01  1.3546903346637E+00  2.3268624716225E-02
84  8.3000000000000E-01  1.3435158824152E+00  2.7056037162960E-03
85  8.4000000000000E-01  1.3322178771879E+00 -1.9829748448495E-02
86  8.5000000000000E-01  1.3209700709089E+00 -4.4557792827469E-02
87  8.6000000000000E-01  1.3099130878040E+00 -7.1623270283834E-02
88  8.7000000000000E-01  1.2991509579417E+00 -1.0108866171979E-01
89  8.8000000000000E-01  1.2887483963032E+00 -1.3292916895961E-01
90  8.9000000000000E-01  1.2787288914859E+00 -1.6702944798430E-01
91  9.0000000000000E-01  1.2690736532064E+00 -2.0318219401993E-01
92  9.1000000000000E-01  1.2597214516997E+00 -2.4108864344114E-01
93  9.2000000000000E-01  1.2505693652186E+00 -2.8036102119962E-01
94  9.3000000000000E-01  1.2414744344353E+00 -3.2052692519572E-01
95  9.4000000000000E-01  1.2322562049621E+00 -3.6103560138335E-01
96  9.5000000000000E-01  1.2227001217769E+00 -4.0126602614597E-01
97  9.6000000000000E-01  1.2125617223911E+00 -4.4053667632428E-01
98  9.7000000000000E-01  1.2015715594716E+00 -4.7811683290981E-01
99  9.8000000000000E-01  1.1894407686232E+00 -5.1323923251580E-01
100  9.9000000000000E-01  1.1758671834725E+00 -5.4511385193762E-01
101  1.0000000000000E+00  1.1605418883197E+00 -5.7294258599420E-01
102  1.0100000000000E+00  1.1431560886995E+00 -5.9593455791067E-01
103  1.0200000000000E+00  1.1234081724109E+00 -6.1332178520494E-01
104  1.0300000000000E+00  1.1010108281194E+00 -6.2437491273964E-01
105  1.0400000000000E+00  1.0756980856151E+00 -6.2841871854165E-01
106  1.0500000000000E+00  1.0472321413182E+00 -6.2484709736123E-01
107  1.0600000000000E+00  1.0154098346853E+00 -6.1313723179443E-01
108  1.0700000000000E+00  9.8006864576744E-01 -5.9286267108428E-01
109  1.0800000000000E+00  9.4109209126048E-01 -5.6370505334860E-01
110  1.0900000000000E+00  8.9841440580802E-01 -5.2546422760838E-01
111  1.1000000000000E+00  8.5202440700025E-01 -4.7806655746076E-01
112  1.1100000000000E+00  8.0196845613474E-01 -4.2157121786273E-01
113  1.1200000000000E+00  7.4835244227197E-01 -3.5617433005630E-01
114  1.1300000000000E+00  6.9134273401307E-01 -2.8221081628019E-01
115  1.1400000000000E+00  6.3116606158058E-01 -2.0015389521587E-01
116  1.1500000000000E+00  5.6810831074374E-01 -1.1061218013479E-01
117  1.1600000000000E+00  5.0251222967964E-01 -1.4324383986949E-02
118  1.1700000000000E+00  4.3477406949797E-01  8.7848321883814E-02
119  1.1800000000000E+00  3.6533919870783E-01  1.9493220645812E-01
120  1.1900000000000E+00  2.9469675076228E-01  3.0585300549718E-01
121  1.2000000000000E+00  2.2337338194154E-01  4.1944990685710E-01
122  1.2100000000000E+00  1.5192623354681E-01  5.3449128963860E-01
123  1.2200000000000E+00  8.0935207691107E-02  6.4969197899921E-01
124  1.2300000000000E+00  1.0994679356676E-02  7.6373174944788E-01
125  1.2400000000000E+00 -5.7295221289080E-02  8.7527478485068E-01
126  1.2500000000000E+00 -1.2333761327323E-01  9.8298978364190E-01
127  1.2600000000000E+00 -1.8654800632472E-01  1.0855703834255E+00
128  1.2700000000000E+00 -2.4636342596966E-01  1.1817555702976E+00
129  1.2800000000000E+00 -3.0225136741901E-01  1.2703497351811E+00
130  1.2900000000000E+00 -3.5371842488979E-01  1.3502420421815E+00
131  1.3000000000000E+00 -4.0031844714145E-01  1.4204247824782E+00
132  1.3100000000000E+00 -4.4166007679176E-01  1.4800104014131E+00
133  1.3200000000000E+00 -4.7741354024929E-01  1.5282469059157E+00