Pr    ONCVPSP-4.0.1  r_core=   2.01067   1.60183   1.90528   1.60183
59.0000     13.0000      250626    zatom,zion,pspd
8      11   3     4   600     0    pspcod,pspxc,lmax,lloc,mmax,r2well
5.99000000 40.70000000  0.00000000    rchrg fchrg qchrg
2     2     2     2     0    nproj
1     1           extension_switch
0                         6.5328311240029E+00  8.0245016989448E-01
1  0.0000000000000E+00  1.2877954258528E-10 -3.5385962909862E-10
2  1.0000000000000E-02  3.1497464394149E-02 -3.0470961491365E-03
3  2.0000000000000E-02  6.2997581234986E-02 -6.1191713600194E-03
4  3.0000000000000E-02  9.4502729458738E-02 -9.2406458319706E-03
5  4.0000000000000E-02  1.2601474410117E-01 -1.2434829640110E-02
6  5.0000000000000E-02  1.5753465211553E-01 -1.5723386583954E-02
7  6.0000000000000E-02  1.8906241742009E-01 -1.9125820475242E-02
8  7.0000000000000E-02  2.2059669809933E-01 -2.2658990925040E-02
9  8.0000000000000E-02  2.5213461855402E-01 -2.6336665336304E-02
10  9.0000000000000E-02  2.8367155923672E-01 -3.0169113373111E-02
11  1.0000000000000E-01  3.1520096642308E-01 -3.4162749666329E-02
12  1.1000000000000E-01  3.4671418425595E-01 -3.8319829933375E-02
13  1.2000000000000E-01  3.7820031106286E-01 -4.2638205043119E-02
14  1.3000000000000E-01  4.0964608168882E-01 -4.7111136853146E-02
15  1.4000000000000E-01  4.4103577730877E-01 -5.1727178893423E-02
16  1.5000000000000E-01  4.7235116389060E-01 -5.6470124175830E-02
17  1.6000000000000E-01  5.0357146017295E-01 -6.1319021582547E-02
18  1.7000000000000E-01  5.3467333570511E-01 -6.6248261436346E-02
19  1.8000000000000E-01  5.6563093917328E-01 -7.1227729992919E-02
20  1.9000000000000E-01  5.9641595691049E-01 -7.6223031728273E-02
21  2.0000000000000E-01  6.2699770116113E-01 -8.1195777433551E-02
22  2.1000000000000E-01  6.5734322734781E-01 -8.6103935285003E-02
23  2.2000000000000E-01  6.8741747927200E-01 -9.0902241237691E-02
24  2.3000000000000E-01  7.1718346087400E-01 -9.5542664308146E-02
25  2.4000000000000E-01  7.4660243288531E-01 -9.9974921571973E-02
26  2.5000000000000E-01  7.7563413243050E-01 -1.0414703701704E-01
27  2.6000000000000E-01  8.0423701337945E-01 -1.0800593776897E-01
28  2.7000000000000E-01  8.3236850501681E-01 -1.1149808065143E-01
29  2.8000000000000E-01  8.5998528638685E-01 -1.1457010156615E-01
30  2.9000000000000E-01  8.8704357348996E-01 -1.1716947978274E-01
31  3.0000000000000E-01  9.1349941635497E-01 -1.1924520892178E-01
32  3.1000000000000E-01  9.3930900289040E-01 -1.2074846620128E-01
33  3.2000000000000E-01  9.6442896632910E-01 -1.2163327139932E-01
34  3.3000000000000E-01  9.8881669302638E-01 -1.2185712696718E-01
35  3.4000000000000E-01  1.0124306273512E+00 -1.2138163081007E-01
36  3.5000000000000E-01  1.0352305704251E+00 -1.2017305343506E-01
37  3.6000000000000E-01  1.0571779695141E+00 -1.1820287144942E-01
38  3.7000000000000E-01  1.0782361949612E+00 -1.1544824977418E-01
39  3.8000000000000E-01  1.0983708016709E+00 -1.1189246541458E-01
40  3.9000000000000E-01  1.1175497723021E+00 -1.0752526619752E-01
41  4.0000000000000E-01  1.1357437395176E+00 -1.0234315854111E-01
42  4.1000000000000E-01  1.1529261848445E+00 -9.6349619056202E-02
43  4.2000000000000E-01  1.1690736119480E+00 -8.9555225587736E-02
44  4.3000000000000E-01  1.1841656923838E+00 -8.1977704177522E-02
45  4.4000000000000E-01  1.1981853821873E+00 -7.3641889358905E-02
46  4.5000000000000E-01  1.2111190079668E+00 -6.4579596170672E-02
47  4.6000000000000E-01  1.2229563214954E+00 -5.4829403289789E-02
48  4.7000000000000E-01  1.2336905221357E+00 -4.4436347721179E-02
49  4.8000000000000E-01  1.2433182467843E+00 -3.3451532535091E-02
50  4.9000000000000E-01  1.2518395273752E+00 -2.1931650198090E-02
51  5.0000000000000E-01  1.2592577163440E+00 -9.9384250898881E-03
52  5.1000000000000E-01  1.2655793808092E+00  2.4620201768180E-03
53  5.2000000000000E-01  1.2708141665788E+00  1.5199869024402E-02
54  5.3000000000000E-01  1.2749746334336E+00  2.8202379209597E-02
55  5.4000000000000E-01  1.2780760634663E+00  4.1394707706679E-02
56  5.5000000000000E-01  1.2801362445663E+00  5.4700783903022E-02
57  5.6000000000000E-01  1.2811752314352E+00  6.8044222089729E-02
58  5.7000000000000E-01  1.2812150867797E+00  8.1349263571245E-02
59  5.8000000000000E-01  1.2802796055739E+00  9.4541738155346E-02
60  5.9000000000000E-01  1.2783940254889E+00  1.0755003432788E-01
61  6.0000000000000E-01  1.2755847267679E+00  1.2030606706956E-01
62  6.1000000000000E-01  1.2718789249644E+00  1.3274623204392E-01
63  6.2000000000000E-01  1.2673043600699E+00  1.4481233477848E-01
64  6.3000000000000E-01  1.2618889856194E+00  1.5645248348000E-01
65  6.4000000000000E-01  1.2556606613957E+00  1.6762193427096E-01
66  6.5000000000000E-01  1.2486468533363E+00  1.7828387790889E-01
67  6.6000000000000E-01  1.2408743441935E+00  1.8841015745202E-01
68  6.7000000000000E-01  1.2323689584073E+00  1.9798190686187E-01
69  6.8000000000000E-01  1.2231553045120E+00  2.0699010118184E-01
70  6.9000000000000E-01  1.2132565382295E+00  2.1543600969592E-01
71  7.0000000000000E-01  1.2026941491895E+00  2.2333154434686E-01
72  7.1000000000000E-01  1.1914877739740E+00  2.3069949666929E-01
73  7.2000000000000E-01  1.1796550379059E+00  2.3757365756424E-01
74  7.3000000000000E-01  1.1672114276944E+00  2.4399881539289E-01
75  7.4000000000000E-01  1.1541701967160E+00  2.5003062909152E-01
76  7.5000000000000E-01  1.1405423043539E+00  2.5573537429159E-01
77  7.6000000000000E-01  1.1263363904420E+00  2.6118956175636E-01
78  7.7000000000000E-01  1.1115587854696E+00  2.6647942880438E-01
79  7.8000000000000E-01  1.0962135567995E+00  2.7170030576554E-01
80  7.9000000000000E-01  1.0803025907463E+00  2.7695586089286E-01
81  8.0000000000000E-01  1.0638257099495E+00  2.8235722851664E-01
82  8.1000000000000E-01  1.0467808250718E+00  2.8802202656278E-01
83  8.2000000000000E-01  1.0291641194509E+00  2.9407327084743E-01
84  8.3000000000000E-01  1.0109702649499E+00  3.0063819479277E-01
85  8.4000000000000E-01  9.9219266687784E-01  3.0784698436679E-01
86  8.5000000000000E-01  9.7282373550657E-01  3.1583143912216E-01
87  8.6000000000000E-01  9.5285518138409E-01  3.2472357118089E-01
88  8.7000000000000E-01  9.3227833135260E-01  3.3465415487193E-01
89  8.8000000000000E-01  9.1108446191713E-01  3.4575124046695E-01
90  8.9000000000000E-01  8.8926514638562E-01  3.5813864606550E-01
91  9.0000000000000E-01  8.6681261201508E-01  3.7193444214827E-01
92  9.1000000000000E-01  8.4372010325285E-01  3.8724944363760E-01
93  9.2000000000000E-01  8.1998224705926E-01  4.0418572447572E-01
94  9.3000000000000E-01  7.9559541623974E-01  4.2283516974834E-01
95  9.4000000000000E-01  7.7055808670047E-01  4.4327808024472E-01
96  9.5000000000000E-01  7.4487118457331E-01  4.6558184405486E-01
97  9.6000000000000E-01  7.1853841923135E-01  4.8979968936372E-01
98  9.7000000000000E-01  6.9156659833630E-01  5.1596953201487E-01
99  9.8000000000000E-01  6.6396592122050E-01  5.4411293068838E-01
100  9.9000000000000E-01  6.3575024710803E-01  5.7423416167865E-01
101  1.0000000000000E+00  6.0693733491862E-01  6.0631942427535E-01
102  1.0100000000000E+00  5.7754905167152E-01  6.4033618665829E-01
103  1.0200000000000E+00  5.4761154681084E-01  6.7623268102376E-01
104  1.0300000000000E+00  5.1715539010504E-01  7.1393755538353E-01
105  1.0400000000000E+00  4.8621567112685E-01  7.5335968813013E-01
106  1.0500000000000E+00  4.5483205869203E-01  7.9438817005822E-01
107  1.0600000000000E+00  4.2304881901975E-01  8.3689245709202E-01
108  1.0700000000000E+00  3.9091479177097E-01  8.8072269550388E-01
109  1.0800000000000E+00  3.5848332351755E-01  9.2571021993913E-01
110  1.0900000000000E+00  3.2581215858865E-01  9.7166822310459E-01
111  1.1000000000000E+00  2.9296328762979E-01  1.0183925945431E+00
112  1.1100000000000E+00  2.6000275458472E-01  1.0656629245284E+00
113  1.1200000000000E+00  2.2700042317117E-01  1.1132436677770E+00
114  1.1300000000000E+00  1.9402970426021E-01  1.1608854604112E+00
115  1.1400000000000E+00  1.6116724588465E-01  1.2083265824219E+00
116  1.1500000000000E+00  1.2849258788879E-01  1.2552945567885E+00
117  1.1600000000000E+00  9.6087783489296E-02  1.3015078754202E+00
118  1.1700000000000E+00  6.4036990240521E-02  1.3466778411974E+00
119  1.1800000000000E+00  3.2426033087791E-02  1.3905105146180E+00
120  1.1900000000000E+00  1.3419423459823E-03  1.4327087528878E+00
121  1.2000000000000E+00 -2.9127530439936E-02  1.4729743287483E+00
122  1.2100000000000E+00 -5.8894415712167E-02  1.5110101158893E+00
123  1.2200000000000E+00 -8.7871045104297E-02  1.5465223274614E+00
124  1.2300000000000E+00 -1.1597058352271E-01  1.5792227939603E+00
125  1.2400000000000E+00 -1.4310757100449E-01  1.6088312665998E+00
126  1.2500000000000E+00 -1.6919847128534E-01  1.6350777322103E+00
127  1.2600000000000E+00 -1.9416222406457E-01  1.6577047256734E+00
128  1.2700000000000E+00 -2.1792079802311E-01  1.6764696259216E+00
129  1.2800000000000E+00 -2.4039974172767E-01  1.6911469215684E+00
130  1.2900000000000E+00 -2.6152872963357E-01  1.7015304322715E+00
131  1.3000000000000E+00 -2.8124210047289E-01  1.7074354719459E+00
132  1.3100000000000E+00 -2.9947938537535E-01  1.7087009399074E+00
133  1.3200000000000E+00 -3.1618582310892E-01  1.7051913259196E+00
134  1.3300000000000E+00 -3.3131285983613E-01  1.6967986149034E+00
135  1.3400000000000E+00 -3.4481863075152E-01  1.6834440767294E+00
136  1.3500000000000E+00 -3.5666842088618E-01  1.6650799260087E+00
137  1.3600000000000E+00 -3.6683510222717E-01  1.6416908361100E+00
138  1.3700000000000E+00 -3.7529954409269E-01  1.6132952907206E+00
139  1.3800000000000E+00 -3.8205099341761E-01  1.5799467551075E+00
140  1.3900000000000E+00 -3.8708742122946E-01  1.5417346477943E+00
141  1.4000000000000E+00 -3.9041583112076E-01  1.4987850916176E+00
142  1.4100000000000E+00 -3.9205252494150E-01  1.4512614210358E+00
143  1.4200000000000E+00 -3.9202332022997E-01  1.3993644200876E+00
144  1.4300000000000E+00 -3.9036371306984E-01  1.3433322625304E+00
145  1.4400000000000E+00 -3.8711897908708E-01  1.2834401223818E+00
146  1.4500000000000E+00 -3.8234420417646E-01  1.2199994193049E+00
147  1.4600000000000E+00 -3.7610423526905E-01  1.1533566590247E+00
148  1.4700000000000E+00 -3.6847353999082E-01  1.0838918241358E+00
149  1.4800000000000E+00 -3.5953596243382E-01  1.0120162653118E+00
150  1.4900000000000E+00 -3.4938436043334E-01  9.3817003696075E-01
151  1.5000000000000E+00 -3.3812010771789E-01  8.6281861477399E-01
152  1.5100000000000E+00 -3.2585244205861E-01  7.8644892535642E-01
153  1.5200000000000E+00 -3.1269763807859E-01  7.0956461014608E-01
154  1.5300000000000E+00 -2.9877798069376E-01  6.3268043714985E-01
155  1.5400000000000E+00 -2.8422051219667E-01  5.5631576447180E-01
156  1.5500000000000E+00 -2.6915552280069E-01  4.8098694931373E-01
157  1.5600000000000E+00 -2.5371475098009E-01  4.0719858489876E-01
158  1.5700000000000E+00 -2.3802925617818E-01  3.3543343562943E-01
159  1.5800000000000E+00 -2.2222692141749E-01  2.6614092212423E-01
160  1.5900000000000E+00 -2.0642954085954E-01  1.9972400565007E-01
161  1.6000000000000E+00 -1.9074948197245E-01  1.3652452022096E-01
162  1.6100000000000E+00 -1.7528588658010E-01  7.6806902887377E-02
163  1.6200000000000E+00 -1.6012595307541E-01  2.0771449043466E-02
164  1.6300000000000E+00 -1.4534986676117E-01 -3.1413927917157E-02
165  1.6400000000000E+00 -1.3103157172101E-01 -7.9607762899760E-02
166  1.6500000000000E+00 -1.1723826266929E-01 -1.2369674474252E-01
167  1.6600000000000E+00 -1.0403005767554E-01 -1.6359647782186E-01
168  1.6700000000000E+00 -9.1459714634884E-02 -1.9925212044386E-01
169  1.6800000000000E+00 -7.9572415129075E-02 -2.3063876504528E-01
170  1.6900000000000E+00 -6.8405617400736E-02 -2.5776155672781E-01
171  1.7000000000000E+00 -5.7988979332278E-02 -2.8065554953173E-01
172  1.7100000000000E+00 -4.8344351912059E-02 -2.9938530073757E-01
173  1.7200000000000E+00 -3.9485843043997E-02 -3.1404420567161E-01
174  1.7300000000000E+00 -3.1419950851915E-02 -3.2475357807202E-01
175  1.7400000000000E+00 -2.4145764957158E-02 -3.3166148347840E-01
176  1.7500000000000E+00 -1.7655233594010E-02 -3.3494133523458E-01
177  1.7600000000000E+00 -1.1933493754508E-02 -3.3479026512923E-01
178  1.7700000000000E+00 -6.9592609757815E-03 -3.3142728269289E-01
179  1.7800000000000E+00 -2.7052747895025E-03 -3.2509123926959E-01
180  1.7900000000000E+00  8.6120466490476E-04 -3.1603861475727E-01
181  1.8000000000000E+00  3.7778538585186E-03 -3.0454114663177E-01
182  1.8100000000000E+00  6.0867023808649E-03 -2.9088332247454E-01
183  1.8200000000000E+00  7.8335145575156E-03 -2.7535975841223E-01
184  1.8300000000000E+00  9.0671423561331E-03 -2.5827248710315E-01
185  1.8400000000000E+00  9.8388559922485E-03 -2.3992817962164E-01
186  1.8500000000000E+00  1.0201659032426E-02 -2.2063532701994E-01
187  1.8600000000000E+00  1.0209594619998E-02 -2.0070140639557E-01
188  1.8700000000000E+00  9.9170491782689E-03 -1.8043005495662E-01
189  1.8800000000000E+00  9.3780644060788E-03 -1.6011829196540E-01
190  1.8900000000000E+00  8.6456439528011E-03 -1.4005375898173E-01
191  1.9000000000000E+00  7.7711394321977E-03 -1.2051218327488E-01
192  1.9100000000000E+00  6.8034871257236E-03 -1.0175458071507E-01
193  1.9200000000000E+00  5.7871456992781E-03 -8.4021522447322E-02
194  1.9300000000000E+00  4.7633054028783E-03 -6.7534832892382E-02
195  1.9400000000000E+00  3.7717662232438E-03 -5.2501015243314E-02
196  1.9500000000000E+00  2.8475137393558E-03 -3.9102890699759E-02
197  1.9600000000000E+00  2.0205359261495E-03 -2.7498446906192E-02
198  1.9700000000000E+00  1.3154080055924E-03 -1.7819290097957E-02
199  1.9800000000000E+00  7.5123083543642E-04 -1.0172840216946E-02
200  1.9900000000000E+00  3.3914604442204E-04 -4.6098395601036E-03
201  2.0000000000000E+00  9.1075401997148E-05 -1.2481665239413E-03
202  2.0100000000000E+00  1.9541944176896E-06 -2.7080208760933E-05
203  2.0200000000000E+00 -2.6598635567719E-06  3.6977446724492E-05
204  2.0300000000000E+00  1.5200210770568E-06 -2.0940618479862E-05
205  2.04 -0.  0.
206  2.05 -0. -0.
207  2.06  0.  0.
208  2.07  0.  0.
209  2.08  0.  0.
210  2.09  0.  0.
211  2.10  0.  0.
212  2.11  0.  0.
213  2.12  0.  0.
214  2.13  0.  0.
215  2.14  0.  0.
216  2.15  0.  0.
217  2.16  0.  0.
218  2.17  0.  0.
219  2.18  0.  0.
220  2.19  0.  0.
221  2.20  0.  0.
222  2.21  0.  0.
223  2.22  0.  0.
224  2.23  0.  0.
225  2.24  0.  0.
226  2.25  0.  0.
227  2.26  0.  0.
228  2.27  0.  0.
229  2.28  0.  0.
230  2.29  0.  0.
231  2.30  0.  0.
232  2.31  0.  0.
233  2.32  0.  0.
234  2.33  0.  0.
235  2.34  0.  0.
236  2.35  0.  0.
237  2.36  0.  0.
238  2.37  0.  0.
239  2.38  0.  0.
240  2.39  0.  0.
241  2.40  0.  0.
242  2.41  0.  0.
243  2.42  0.  0.
244  2.43  0.  0.
245  2.44  0.  0.
246  2.45  0.  0.
247  2.46  0.  0.
248  2.47  0.  0.
249  2.48  0.  0.
250  2.49  0.  0.
251  2.50  0.  0.
252  2.51  0.  0.
253  2.52  0.  0.
254  2.53  0.  0.
255  2.54  0.  0.
256  2.55  0.  0.
257  2.56  0.  0.
258  2.57  0.  0.
259  2.58  0.  0.
260  2.59  0.  0.
261  2.60  0.  0.
262  2.61  0.  0.
263  2.62  0.  0.
264  2.63  0.  0.
265  2.64  0.  0.
266  2.65  0.  0.
267  2.66  0.  0.
268  2.67  0.  0.
269  2.68  0.  0.
270  2.69  0.  0.
271  2.70  0.  0.
272  2.71  0.  0.
273  2.72  0.  0.
274  2.73  0.  0.
275  2.74  0.  0.
276  2.75  0.  0.
277  2.76  0.  0.
278  2.77  0.  0.
279  2.78  0.  0.
280  2.79  0.  0.
281  2.80  0.  0.
282  2.81  0.  0.
283  2.82  0.  0.
284  2.83  0.  0.
285  2.84  0.  0.
286  2.85  0.  0.
287  2.86  0.  0.
288  2.87  0.  0.
289  2.88  0.  0.
290  2.89  0.  0.
291  2.90  0.  0.
292  2.91  0.  0.
293  2.92  0.  0.
294  2.93  0.  0.
295  2.94  0.  0.
296  2.95  0.  0.
297  2.96  0.  0.
298  2.97  0.  0.
299  2.98  0.  0.
300  2.99  0.  0.
301  3.00  0.  0.
302  3.01  0.  0.
303  3.02  0.  0.
304  3.03  0.  0.
305  3.04  0.  0.
306  3.05  0.  0.
307  3.06  0.  0.
308  3.07  0.  0.
309  3.08  0.  0.
310  3.09  0.  0.
311  3.10  0.  0.
312  3.11  0.  0.
313  3.12  0.  0.
314  3.13  0.  0.
315  3.14  0.  0.
316  3.15  0.  0.
317  3.16  0.  0.
318  3.17  0.  0.
319  3.18  0.  0.
320  3.19  0.  0.
321  3.20  0.  0.
322  3.21  0.  0.
323  3.22  0.  0.
324  3.23  0.  0.
325  3.24  0.  0.
326  3.25  0.  0.
327  3.26  0.  0.
328  3.27  0.  0.
329  3.28  0.  0.
330  3.29  0.  0.
331  3.30  0.  0.
332  3.31  0.  0.
333  3.32  0.  0.
334  3.33  0.  0.
335  3.34  0.  0.
336  3.35  0.  0.
337  3.36  0.  0.
338  3.37  0.  0.
339  3.38  0.  0.
340  3.39  0.  0.
341  3.40  0.  0.
342  3.41  0.  0.
343  3.42  0.  0.
344  3.43  0.  0.
345  3.44  0.  0.
346  3.45  0.  0.
347  3.46  0.  0.
348  3.47  0.  0.
349  3.48  0.  0.
350  3.49  0.  0.
351  3.50  0.  0.
352  3.51  0.  0.
353  3.52  0.  0.
354  3.53  0.  0.
355  3.54  0.  0.
356  3.55  0.  0.
357  3.56  0.  0.
358  3.57  0.  0.
359  3.58  0.  0.
360  3.59  0.  0.
361  3.60  0.  0.
362  3.61  0.  0.
363  3.62  0.  0.
364  3.63  0.  0.
365  3.64  0.  0.
366  3.65  0.  0.
367  3.66  0.  0.
368  3.67  0.  0.
369  3.68  0.  0.
370  3.69  0.  0.
371  3.70  0.  0.
372  3.71  0.  0.
373  3.72  0.  0.
374  3.73  0.  0.
375  3.74  0.  0.
376  3.75  0.  0.
377  3.76  0.  0.
378  3.77  0.  0.
379  3.78  0.  0.
380  3.79  0.  0.
381  3.80  0.  0.
382  3.81  0.  0.
383  3.82  0.  0.
384  3.83  0.  0.
385  3.84  0.  0.
386  3.85  0.  0.
387  3.86  0.  0.
388  3.87  0.  0.
389  3.88  0.  0.
390  3.89  0.  0.
391  3.90  0.  0.
392  3.91  0.  0.
393  3.92  0.  0.
394  3.93  0.  0.
395  3.94  0.  0.
396  3.95  0.  0.
397  3.96  0.  0.
398  3.97  0.  0.
399  3.98  0.  0.
400  3.99  0.  0.
401  4.00  0.  0.
402  4.01  0.  0.
403  4.02  0.  0.
404  4.03  0.  0.
405  4.04  0.  0.
406  4.05  0.  0.
407  4.06  0.  0.
408  4.07  0.  0.
409  4.08  0.  0.
410  4.09  0.  0.
411  4.10  0.  0.
412  4.11  0.  0.
413  4.12  0.  0.
414  4.13  0.  0.
415  4.14  0.  0.
416  4.15  0.  0.
417  4.16  0.  0.
418  4.17  0.  0.
419  4.18  0.  0.
420  4.19  0.  0.
421  4.20  0.  0.
422  4.21  0.  0.
423  4.22  0.  0.
424  4.23  0.  0.
425  4.24  0.  0.
426  4.25  0.  0.
427  4.26  0.  0.
428  4.27  0.  0.
429  4.28  0.  0.
430  4.29  0.  0.
431  4.30  0.  0.
432  4.31  0.  0.
433  4.32  0.  0.
434  4.33  0.  0.
435  4.34  0.  0.
436  4.35  0.  0.
437  4.36  0.  0.
438  4.37  0.  0.
439  4.38  0.  0.
440  4.39  0.  0.
441  4.40  0.  0.
442  4.41  0.  0.
443  4.42  0.  0.
444  4.43  0.  0.
445  4.44  0.  0.
446  4.45  0.  0.
447  4.46  0.  0.
448  4.47  0.  0.
449  4.48  0.  0.
450  4.49  0.  0.
451  4.50  0.  0.
452  4.51  0.  0.
453  4.52  0.  0.
454  4.53  0.  0.
455  4.54  0.  0.
456  4.55  0.  0.
457  4.56  0.  0.
458  4.57  0.  0.
459  4.58  0.  0.
460  4.59  0.  0.
461  4.60  0.  0.
462  4.61  0.  0.
463  4.62  0.  0.
464  4.63  0.  0.
465  4.64  0.  0.
466  4.65  0.  0.
467  4.66  0.  0.
468  4.67  0.  0.
469  4.68  0.  0.
470  4.69  0.  0.
471  4.70  0.  0.
472  4.71  0.  0.
473  4.72  0.  0.
474  4.73  0.  0.
475  4.74  0.  0.
476  4.75  0.  0.
477  4.76  0.  0.
478  4.77  0.  0.
479  4.78  0.  0.
480  4.79  0.  0.
481  4.80  0.  0.
482  4.81  0.  0.
483  4.82  0.  0.
484  4.83  0.  0.
485  4.84  0.  0.
486  4.85  0.  0.
487  4.86  0.  0.
488  4.87  0.  0.
489  4.88  0.  0.
490  4.89  0.  0.
491  4.90  0.  0.
492  4.91  0.  0.
493  4.92  0.  0.
494  4.93  0.  0.
495  4.94  0.  0.
496  4.95  0.  0.
497  4.96  0.  0.
498  4.97  0.  0.
499  4.98  0.  0.
500  4.99  0.  0.
501  5.00  0.  0.
502  5.01  0.  0.
503  5.02  0.  0.
504  5.03  0.  0.
505  5.04  0.  0.
506  5.05  0.  0.
507  5.06  0.  0.
508  5.07  0.  0.
509  5.08  0.  0.
510  5.09  0.  0.
511  5.10  0.  0.
512  5.11  0.  0.
513  5.12  0.  0.
514  5.13  0.  0.
515  5.14  0.  0.
516  5.15  0.  0.
517  5.16  0.  0.
518  5.17  0.  0.
519  5.18  0.  0.
520  5.19  0.  0.
521  5.20  0.  0.
522  5.21  0.  0.
523  5.22  0.  0.
524  5.23  0.  0.
525  5.24  0.  0.
526  5.25  0.  0.
527  5.26  0.  0.
528  5.27  0.  0.
529  5.28  0.  0.
530  5.29  0.  0.
531  5.30  0.  0.
532  5.31  0.  0.
533  5.32  0.  0.
534  5.33  0.  0.
535  5.34  0.  0.
536  5.35  0.  0.
537  5.36  0.  0.
538  5.37  0.  0.
539  5.38  0.  0.
540  5.39  0.  0.
541  5.40  0.  0.
542  5.41  0.  0.
543  5.42  0.  0.
544  5.43  0.  0.
545  5.44  0.  0.
546  5.45  0.  0.
547  5.46  0.  0.
548  5.47  0.  0.
549  5.48  0.  0.
550  5.49  0.  0.
551  5.50  0.  0.
552  5.51  0.  0.
553  5.52  0.  0.
554  5.53  0.  0.
555  5.54  0.  0.
556  5.55  0.  0.
557  5.56  0.  0.
558  5.57  0.  0.
559  5.58  0.  0.
560  5.59  0.  0.
561  5.60  0.  0.
562  5.61  0.  0.
563  5.62  0.  0.
564  5.63  0.  0.
565  5.64  0.  0.
566  5.65  0.  0.
567  5.66  0.  0.
568  5.67  0.  0.
569  5.68  0.  0.
570  5.69  0.  0.
571  5.70  0.  0.
572  5.71  0.  0.
573  5.72  0.  0.
574  5.73  0.  0.
575  5.74  0.  0.
576  5.75  0.  0.
577  5.76  0.  0.
578  5.77  0.  0.
579  5.78  0.  0.
580  5.79  0.  0.
581  5.80  0.  0.
582  5.81  0.  0.
583  5.82  0.  0.
584  5.83  0.  0.
585  5.84  0.  0.
586  5.85  0.  0.
587  5.86  0.  0.
588  5.87  0.  0.
589  5.88  0.  0.
590  5.89  0.  0.
591  5.90  0.  0.
592  5.91  0.  0.
593  5.92  0.  0.
594  5.93  0.  0.
595  5.94  0.  0.
596  5.95  0.  0.
597  5.96  0.  0.
598  5.97  0.  0.
599  5.98  0.  0.
600  5.99  0.  0.
1                         4.7635403630559E+00  1.2682707142171E+00
1  0.0000000000000E+00  1.7382347991535E-08 -4.4822348180262E-08
2  1.0000000000000E-02  1.4426888076680E-03 -1.8250294528733E-03
3  2.0000000000000E-02  5.7466981599105E-03 -7.2415458939985E-03
4  3.0000000000000E-02  1.2840360969354E-02 -1.6075129608357E-02
5  4.0000000000000E-02  2.2605902231614E-02 -2.8039374703652E-02
6  5.0000000000000E-02  3.4881908477296E-02 -4.2742237360269E-02
7  6.0000000000000E-02  4.9466714211251E-02 -5.9694740853866E-02
8  7.0000000000000E-02  6.6122636226003E-02 -7.8321859152732E-02
9  8.0000000000000E-02  8.4580969293898E-02 -9.7975356069712E-02
10  9.0000000000000E-02  1.0454764107044E-01 -1.1794831653253E-01
11  1.0000000000000E-01  1.2570941039120E-01 -1.3749107133018E-01
12  1.1000000000000E-01  1.4774048178936E-01 -1.5582818739930E-01
13  1.2000000000000E-01  1.7030940022828E-01 -1.7217617292133E-01
14  1.3000000000000E-01  1.9308608391413E-01 -1.8576153067209E-01
15  1.4000000000000E-01  2.1574884975310E-01 -1.9583878452863E-01
16  1.5000000000000E-01  2.3799128562067E-01 -2.0170810297956E-01
17  1.6000000000000E-01  2.5952882613044E-01 -2.0273214994821E-01
18  1.7000000000000E-01  2.8010489398884E-01 -1.9835180711630E-01
19  1.8000000000000E-01  2.9949647720011E-01 -1.8810043298141E-01
20  1.9000000000000E-01  3.1751902319423E-01 -1.7161635170439E-01
21  2.0000000000000E-01  3.3403054418415E-01 -1.4865329887978E-01
22  2.1000000000000E-01  3.4893484346707E-01 -1.1908859104807E-01
23  2.2000000000000E-01  3.6218378967414E-01 -8.2928830304045E-02
24  2.3000000000000E-01  3.7377858480998E-01 -4.0313003886676E-02
25  2.4000000000000E-01  3.8376999194579E-01  8.4871097738781E-03
26  2.5000000000000E-01  3.9225750924826E-01  6.3069263427787E-02
27  2.6000000000000E-01  3.9938749823574E-01  1.2290577200702E-01
28  2.7000000000000E-01  4.0535029533783E-01  1.8735117785845E-01
29  2.8000000000000E-01  4.1037635657895E-01  2.5565242232798E-01
30  2.9000000000000E-01  4.1473150509842E-01  3.2696134451601E-01
31  3.0000000000000E-01  4.1871136986550E-01  4.0034927992978E-01
32  3.1000000000000E-01  4.2263512097206E-01  4.7482348782949E-01
33  3.2000000000000E-01  4.2683862194425E-01  5.4934509719045E-01
34  3.3000000000000E-01  4.3166713229981E-01  6.2284822817802E-01
35  3.4000000000000E-01  4.3746770382236E-01  6.9425991954019E-01
36  3.5000000000000E-01  4.4458142151074E-01  7.6252047292859E-01
37  3.6000000000000E-01  4.5333564472343E-01  8.2660381329102E-01
38  3.7000000000000E-01  4.6403640556443E-01  8.8553746042245E-01
39  3.8000000000000E-01  4.7696111999576E-01  9.3842171065454E-01
40  3.9000000000000E-01  4.9235176251938E-01  9.8444763948658E-01
41  4.0000000000000E-01  5.1040864761458E-01  1.0229135555458E+00
42  4.1000000000000E-01  5.3128495057194E-01  1.0532395632858E+00
43  4.2000000000000E-01  5.5508208711339E-01  1.0749799258245E+00
44  4.3000000000000E-01  5.8184605546658E-01  1.0878329596748E+00
45  4.4000000000000E-01  6.1156482665642E-01  1.0916482391003E+00
46  4.5000000000000E-01  6.4416684901730E-01  1.0864309385898E+00
47  4.6000000000000E-01  6.7952071168552E-01  1.0723431965242E+00
48  4.7000000000000E-01  7.1743598950250E-01  1.0497024405009E+00
49  4.8000000000000E-01  7.5766526877088E-01  1.0189766738668E+00
50  4.9000000000000E-01  7.9990733009825E-01  9.8077678267776E-01
51  5.0000000000000E-01  8.4381144158568E-01  9.3584598138028E-01
52  5.1000000000000E-01  8.8898269331880E-01  8.8504657285633E-01
53  5.2000000000000E-01  9.3498828293752E-01  8.2934425294901E-01
54  5.3000000000000E-01  9.8136464241644E-01  7.6979024011634E-01
55  5.4000000000000E-01  1.0276252784782E+00  7.0750155642124E-01
56  5.5000000000000E-01  1.0732691836474E+00  6.4363982573090E-01
57  5.6000000000000E-01  1.1177896621533E+00  5.7938898794193E-01
58  5.7000000000000E-01  1.1606834049793E+00  5.1593235356704E-01
59  5.8000000000000E-01  1.2014596415542E+00  4.5442944054937E-01
60  5.9000000000000E-01  1.2396491920494E+00  3.9599304429441E-01
61  6.0000000000000E-01  1.2748132440839E+00  3.4166699236928E-01
62  6.1000000000000E-01  1.3065516808846E+00  2.9240502702024E-01
63  6.2000000000000E-01  1.3345107945747E+00  2.4905124167647E-01
64  6.3000000000000E-01  1.3583902281701E+00  2.1232247218214E-01
65  6.4000000000000E-01  1.3779490029008E+00  1.8279301003787E-01
66  6.5000000000000E-01  1.3930105034128E+00  1.6088196400017E-01
67  6.6000000000000E-01  1.4034663119800E+00  1.4684354870079E-01
68  6.7000000000000E-01  1.4092788037217E+00  1.4076052535382E-01
69  6.8000000000000E-01  1.4104824376125E+00  1.4254096109514E-01
70  6.9000000000000E-01  1.4071837023596E+00  1.5191841111955E-01
71  7.0000000000000E-01  1.3995597015655E+00  1.6845556270866E-01
72  7.1000000000000E-01  1.3878553885073E+00  1.9155131370284E-01
73  7.2000000000000E-01  1.3723794868604E+00  2.2045119122763E-01
74  7.3000000000000E-01  1.3534991592797E+00  2.5426095081591E-01
75  7.4000000000000E-01  1.3316335104197E+00  2.9196313275495E-01
76  7.5000000000000E-01  1.3072460342585E+00  3.3243629275614E-01
77  7.6000000000000E-01  1.2808361370203E+00  3.7447656909285E-01
78  7.7000000000000E-01  1.2529298861377E+00  4.1682119927219E-01
79  7.8000000000000E-01  1.2240701521792E+00  4.5817355710156E-01
80  7.9000000000000E-01  1.1948063241334E+00  4.9722924656043E-01
81  8.0000000000000E-01  1.1656837886187E+00  5.3270276292993E-01
82  8.1000000000000E-01  1.1372333702284E+00  5.6335421474735E-01
83  8.2000000000000E-01  1.1099609331926E+00  5.8801559275704E-01
84  8.3000000000000E-01  1.0843373437152E+00  6.0561607435626E-01
85  8.4000000000000E-01  1.0607889877384E+00  6.1520586413881E-01
86  8.5000000000000E-01  1.0396890305221E+00  6.1597809288619E-01
87  8.6000000000000E-01  1.0213495924478E+00  6.0728832842398E-01
88  8.7000000000000E-01  1.0060150000424E+00  5.8867129165119E-01
89  8.8000000000000E-01  9.9385625264227E-01  5.5985441908728E-01
90  8.9000000000000E-01  9.8496682369396E-01  5.2076796862935E-01
91  9.0000000000000E-01  9.7935989180896E-01  4.7155142688853E-01
92  9.1000000000000E-01  9.7696707077209E-01  4.1255604336978E-01
93  9.2000000000000E-01  9.7763868023594E-01  3.4434338764855E-01
94  9.3000000000000E-01  9.8114557031212E-01  2.6767989927756E-01
95  9.4000000000000E-01  9.8718248423180E-01  1.8352747505709E-01
96  9.5000000000000E-01  9.9537291423499E-01  9.3030213119356E-02
97  9.6000000000000E-01  1.0052753774135E+00 -2.5024934102594E-03
98  9.7000000000000E-01  1.0163910109126E+00 -1.0161624999128E-01
99  9.8000000000000E-01  1.0281723602202E+00 -2.0273501212590E-01
100  9.9000000000000E-01  1.0400332107340E+00 -3.0418710469714E-01
101  1.0000000000000E+00  1.0513592918650E+00 -4.0423346526684E-01
102  1.0100000000000E+00  1.0615196650089E+00 -5.0109762126372E-01
103  1.0200000000000E+00  1.0698785921656E+00 -5.9299687355146E-01
104  1.0300000000000E+00  1.0758076711110E+00 -6.7817413091699E-01
105  1.0400000000000E+00  1.0786980160425E+00 -7.5492982211765E-01
106  1.0500000000000E+00  1.0779722596995E+00 -8.2165330471060E-01
107  1.0600000000000E+00  1.0730961541763E+00 -8.7685319315724E-01
108  1.0700000000000E+00  1.0635895530015E+00 -9.1918604264031E-01
109  1.0800000000000E+00  1.0490365664997E+00 -9.4748284953854E-01
110  1.0900000000000E+00  1.0290946957652E+00 -9.6077286399783E-01
111  1.1000000000000E+00  1.0035027676555E+00 -9.5830425426451E-01
112  1.1100000000000E+00  9.7208751358811E-01 -9.3956121518086E-01
113  1.1200000000000E+00  9.3476865843374E-01 -9.0427717409185E-01
114  1.1300000000000E+00  8.9156241181774E-01 -8.5244381474180E-01
115  1.1400000000000E+00  8.4258328239852E-01 -7.8431571286320E-01
116  1.1500000000000E+00  7.8804416547785E-01 -7.0041045425644E-01
117  1.1600000000000E+00  7.2825468527312E-01 -6.0150418634267E-01
118  1.1700000000000E+00  6.6361780454246E-01 -4.8862263537773E-01
119  1.1800000000000E+00  5.9462474572657E-01 -3.6302770304142E-01
120  1.1900000000000E+00  5.2184829837568E-01 -2.2619983542941E-01
121  1.2000000000000E+00  4.4593461730617E-01 -7.9816434430188E-02
122  1.2100000000000E+00  3.6759364356369E-01  7.4273346818121E-02
123  1.2200000000000E+00  2.8758830588891E-01  2.3407701613767E-01
124  1.2300000000000E+00  2.0672268310310E-01  3.9748989481770E-01
125  1.2400000000000E+00  1.2582932743124E-01  5.6232849194628E-01
126  1.2500000000000E+00  4.5755964916928E-02  7.2636553988720E-01
127  1.2600000000000E+00 -3.2648198710598E-02  8.8736609812405E-01
128  1.2700000000000E+00 -1.0854633011249E-01  1.0431241107730E+00
129  1.2800000000000E+00 -1.8112773777461E-01  1.1914987921134E+00
130  1.2900000000000E+00 -2.4962131849722E-01  1.3304502144973E+00
131  1.3000000000000E+00 -3.1330844520719E-01  1.4580734840343E+00
132  1.3100000000000E+00 -3.7153506916274E-01  1.5726309113835E+00
133  1.3200000000000E+00 -4.2372282244091E-01  1.6725816172450E+00