Er    ONCVPSP-4.0.1  r_core=   2.00187   1.60440   1.90833   1.40655
68.0000     22.0000      250626    zatom,zion,pspd
8      11   3     4   600     0    pspcod,pspxc,lmax,lloc,mmax,r2well
5.99000000  9.40000000  0.00000000    rchrg fchrg qchrg
2     2     2     2     0    nproj
1     1           extension_switch
0                         7.1691021083727E+00  9.8461156020321E-01
1  0.0000000000000E+00  7.7068740278463E-11 -2.1888918455559E-10
2  1.0000000000000E-02  4.3498533310756E-02 -3.5282078222873E-03
3  2.0000000000000E-02  8.6968752020229E-02 -7.0840486973518E-03
4  3.0000000000000E-02  1.3038218208169E-01 -1.0694631490476E-02
5  4.0000000000000E-02  1.7371003262751E-01 -1.4386022362327E-02
6  5.0000000000000E-02  2.1692304271404E-01 -1.8182737536608E-02
7  6.0000000000000E-02  2.5999133419795E-01 -2.2107252855434E-02
8  7.0000000000000E-02  3.0288427269666E-01 -2.6179535459471E-02
9  8.0000000000000E-02  3.4557033850876E-01 -3.0416602711027E-02
10  9.0000000000000E-02  3.8801700927476E-01 -3.4832113208427E-02
11  1.0000000000000E-01  4.3019065604675E-01 -3.9435994421642E-02
12  1.1000000000000E-01  4.7205645430667E-01 -4.4234111115211E-02
13  1.2000000000000E-01  5.1357831132949E-01 -4.9227978318155E-02
14  1.3000000000000E-01  5.5471881113013E-01 -5.4414522155841E-02
15  1.4000000000000E-01  5.9543917806289E-01 -5.9785891379417E-02
16  1.5000000000000E-01  6.3569925996136E-01 -6.5329321919117E-02
17  1.6000000000000E-01  6.7545753151625E-01 -7.1027056253170E-02
18  1.7000000000000E-01  7.1467111839067E-01 -7.6856318829158E-02
19  1.8000000000000E-01  7.5329584236828E-01 -8.2789348204685E-02
20  1.9000000000000E-01  7.9128628762141E-01 -8.8793485994570E-02
21  2.0000000000000E-01  8.2859588797611E-01 -9.4831322128251E-02
22  2.1000000000000E-01  8.6517703483997E-01 -1.0086089533850E-01
23  2.2000000000000E-01  9.0098120524952E-01 -1.0683594722789E-01
24  2.3000000000000E-01  9.3595910928818E-01 -1.1270622769684E-01
25  2.4000000000000E-01  9.7006085592550E-01 -1.1841784897347E-01
26  2.5000000000000E-01  1.0032361361353E+00 -1.2391368496545E-01
27  2.6000000000000E-01  1.0354344219668E+00 -1.2913381216304E-01
28  2.7000000000000E-01  1.0666051800688E+00 -1.3401598786651E-01
29  2.8000000000000E-01  1.0966980980082E+00 -1.3849616109304E-01
30  2.9000000000000E-01  1.1256633215769E+00 -1.4250901114513E-01
31  3.0000000000000E-01  1.1534517011504E+00 -1.4598850849617E-01
32  3.1000000000000E-01  1.1800150450488E+00 -1.4886849237436E-01
33  3.2000000000000E-01  1.2053063777555E+00 -1.5108325920705E-01
34  3.3000000000000E-01  1.2292802007719E+00 -1.5256815592513E-01
35  3.4000000000000E-01  1.2518927538339E+00 -1.5326017202573E-01
36  3.5000000000000E-01  1.2731022741759E+00 -1.5309852425096E-01
37  3.6000000000000E-01  1.2928692515221E+00 -1.5202522776356E-01
38  3.7000000000000E-01  1.3111566764857E+00 -1.4998564778635E-01
39  3.8000000000000E-01  1.3279302800951E+00 -1.4692902582249E-01
40  3.9000000000000E-01  1.3431587622117E+00 -1.4280897478566E-01
41  4.0000000000000E-01  1.3568140066842E+00 -1.3758393764405E-01
42  4.1000000000000E-01  1.3688712811762E+00 -1.3121760451500E-01
43  4.2000000000000E-01  1.3793094197214E+00 -1.2367928353822E-01
44  4.3000000000000E-01  1.3881109861973E+00 -1.1494422130005E-01
45  4.4000000000000E-01  1.3952624170606E+00 -1.0499386907539E-01
46  4.5000000000000E-01  1.4007541418621E+00 -9.3816091694555E-02
47  4.6000000000000E-01  1.4045806802450E+00 -8.1405316422991E-02
48  4.7000000000000E-01  1.4067407143329E+00 -6.7762619858691E-02
49  4.8000000000000E-01  1.4072371356277E+00 -5.2895751497437E-02
50  4.9000000000000E-01  1.4060770657658E+00 -3.6819093286126E-02
51  5.0000000000000E-01  1.4032718507097E+00 -1.9553555169735E-02
52  5.1000000000000E-01  1.3988370281974E+00 -1.1264073335528E-03
53  5.2000000000000E-01  1.3927922685126E+00  1.8428949459324E-02
54  5.3000000000000E-01  1.3851612888872E+00  3.9073273341685E-02
55  5.4000000000000E-01  1.3759717420912E+00  6.0761827851635E-02
56  5.5000000000000E-01  1.3652550800103E+00  8.3444782040378E-02
57  5.6000000000000E-01  1.3530463932462E+00  1.0706766010525E-01
58  5.7000000000000E-01  1.3393842280058E+00  1.3157183587366E-01
59  5.8000000000000E-01  1.3243103817664E+00  1.5689506690312E-01
60  5.9000000000000E-01  1.3078696794082E+00  1.8297206244923E-01
61  6.0000000000000E-01  1.2901097317026E+00  2.0973507909535E-01
62  6.1000000000000E-01  1.2710806782183E+00  2.3711453743769E-01
63  6.2000000000000E-01  1.2508349168675E+00  2.6503965288584E-01
64  6.3000000000000E-01  1.2294268224535E+00  2.9343907337486E-01
65  6.4000000000000E-01  1.2069124566948E+00  3.2224151659415E-01
66  6.5000000000000E-01  1.1833492722996E+00  3.5137639922604E-01
67  6.6000000000000E-01  1.1587958137305E+00  3.8077445065410E-01
68  6.7000000000000E-01  1.1333114173463E+00  4.1036830364994E-01
69  6.8000000000000E-01  1.1069559136266E+00  4.4009305467990E-01
70  6.9000000000000E-01  1.0797893341791E+00  4.6988678668785E-01
71  7.0000000000000E-01  1.0518716261948E+00  4.9969104750814E-01
72  7.1000000000000E-01  1.0232623769603E+00  5.2945127744214E-01
73  7.2000000000000E-01  9.9402055094741E-01  5.5911717998857E-01
74  7.3000000000000E-01  9.6420424189514E-01  5.8864303025181E-01
75  7.4000000000000E-01  9.3387044215982E-01  6.1798791615654E-01
76  7.5000000000000E-01  9.0307483145457E-01  6.4711590826884E-01
77  7.6000000000000E-01  8.7187158691736E-01  6.7599615475685E-01
78  7.7000000000000E-01  8.4031321624671E-01  7.0460289881244E-01
79  7.8000000000000E-01  8.0845041542398E-01  7.3291541669165E-01
80  7.9000000000000E-01  7.7633195230389E-01  7.6091787541024E-01
81  8.0000000000000E-01  7.4400457710251E-01  7.8859911004173E-01
82  8.1000000000000E-01  7.1151296054605E-01  8.1595232150314E-01
83  8.2000000000000E-01  6.7889966016657E-01  8.4297469666676E-01
84  8.3000000000000E-01  6.4620511494533E-01  8.6966695360019E-01
85  8.4000000000000E-01  6.1346766821129E-01  8.9603281569864E-01
86  8.5000000000000E-01  5.8072361840606E-01  9.2207841942775E-01
87  8.6000000000000E-01  5.4800729702698E-01  9.4781166133116E-01
88  8.7000000000000E-01  5.1535117276174E-01  9.7324149086736E-01
89  8.8000000000000E-01  4.8278598053118E-01  9.9837715651643E-01
90  8.9000000000000E-01  4.5034087386525E-01  1.0232274134302E+00
91  9.0000000000000E-01  4.1804359875194E-01  1.0477997016831E+00
92  9.1000000000000E-01  3.8592068682244E-01  1.0720993049058E+00
93  9.2000000000000E-01  3.5399766546983E-01  1.0961284997459E+00
94  9.3000000000000E-01  3.2229928224540E-01  1.1198857071876E+00
95  9.4000000000000E-01  2.9084974063707E-01  1.1433646572763E+00
96  9.5000000000000E-01  2.5967294411138E-01  1.1665535792206E+00
97  9.6000000000000E-01  2.2879274509476E-01  1.1894344291844E+00
98  9.7000000000000E-01  1.9823319538293E-01  1.2119821683260E+00
99  9.8000000000000E-01  1.6801879430204E-01  1.2341641037866E+00
100  9.9000000000000E-01  1.3817473080142E-01  1.2559393053676E+00
101  1.0000000000000E+00  1.0872711553920E-01  1.2772581105702E+00
102  1.0100000000000E+00  7.9703198928640E-02  1.2980617304810E+00
103  1.0200000000000E+00  5.1131571048463E-02  1.3182819686809E+00
104  1.0300000000000E+00  2.3042339285316E-02  1.3378410649239E+00
105  1.0400000000000E+00 -4.5327204251559E-03  1.3566516747568E+00
106  1.0500000000000E+00 -3.1560042858861E-02  1.3746169955484E+00
107  1.0600000000000E+00 -5.8004187293468E-02  1.3916310485308E+00
108  1.0700000000000E+00 -8.3827789741602E-02  1.4075791254377E+00
109  1.0800000000000E+00 -1.0899155737985E-01  1.4223384071319E+00
110  1.0900000000000E+00 -1.3345430871404E-01  1.4357787602404E+00
111  1.1000000000000E+00 -1.5717306275316E-01  1.4477637162391E+00
112  1.1100000000000E+00 -1.8010318013378E-01  1.4581516356461E+00
113  1.1200000000000E+00 -2.0219855873689E-01  1.4667970579557E+00
114  1.1300000000000E+00 -2.2341188586434E-01  1.4735522356791E+00
115  1.1400000000000E+00 -2.4369494848015E-01  1.4782688482985E+00
116  1.1500000000000E+00 -2.6299900237054E-01  1.4807998891029E+00
117  1.1600000000000E+00 -2.8127520031717E-01  1.4810017146797E+00
118  1.1700000000000E+00 -2.9847507850991E-01  1.4787362433127E+00
119  1.1800000000000E+00 -3.1455109942678E-01  1.4738732845928E+00
120  1.1900000000000E+00 -3.2945724827663E-01  1.4662929782001E+00
121  1.2000000000000E+00 -3.4314967881515E-01  1.4558883149911E+00
122  1.2100000000000E+00 -3.5558740289167E-01  1.4425677081860E+00
123  1.2200000000000E+00 -3.6673301646148E-01  1.4262575765969E+00
124  1.2300000000000E+00 -3.7655345296331E-01  1.4069048953342E+00
125  1.2400000000000E+00 -3.8502075293318E-01  1.3844796623420E+00
126  1.2500000000000E+00 -3.9211283645585E-01  1.3589772212953E+00
127  1.2600000000000E+00 -3.9781426253703E-01  1.3304203728219E+00
128  1.2700000000000E+00 -4.0211695671260E-01  1.2988611966964E+00
129  1.2800000000000E+00 -4.0502088513683E-01  1.2643824974077E+00
130  1.2900000000000E+00 -4.0653465002441E-01  1.2270987743729E+00
131  1.3000000000000E+00 -4.0667597764053E-01  1.1871566060020E+00
132  1.3100000000000E+00 -4.0547206598151E-01  1.1447343236226E+00
133  1.3200000000000E+00 -4.0295975488618E-01  1.1000408370288E+00
134  1.3300000000000E+00 -3.9918547652684E-01  1.0533134579923E+00
135  1.3400000000000E+00 -3.9420493902199E-01  1.0048145513952E+00
136  1.3500000000000E+00 -3.8808249025702E-01  9.5482682560254E-01
137  1.3600000000000E+00 -3.8089010289662E-01  9.0364705429477E-01
138  1.3700000000000E+00 -3.7270591498845E-01  8.5157800112076E-01
139  1.3800000000000E+00 -3.6361225343846E-01  7.9891829603786E-01
140  1.3900000000000E+00 -3.5369305960618E-01  7.4594998599776E-01
141  1.4000000000000E+00 -3.4303064416533E-01  6.9292354852874E-01
142  1.4100000000000E+00 -3.3170156349255E-01  6.4003940523690E-01
143  1.4200000000000E+00 -3.1977426217739E-01  5.8744114215487E-01
144  1.4300000000000E+00 -3.0731462380205E-01  5.3525282948968E-01
145  1.4400000000000E+00 -2.9438980207122E-01  4.8360283328616E-01
146  1.4500000000000E+00 -2.8106788141089E-01  4.3262271523602E-01
147  1.4600000000000E+00 -2.6741759010555E-01  3.8244650399817E-01
148  1.4700000000000E+00 -2.5350796172374E-01  3.3320969351327E-01
149  1.4800000000000E+00 -2.3940798545740E-01  2.8504820758477E-01
150  1.4900000000000E+00 -2.2518624781058E-01  2.3809733605011E-01
151  1.5000000000000E+00 -2.1091056816385E-01  1.9249064913147E-01
152  1.5100000000000E+00 -1.9664763132556E-01  1.4835889973175E-01
153  1.5200000000000E+00 -1.8246262030943E-01  1.0582892394861E-01
154  1.5300000000000E+00 -1.6841885261039E-01  6.5022550154823E-02
155  1.5400000000000E+00 -1.5457742328102E-01  2.6055527116573E-02
156  1.5500000000000E+00 -1.4099685808869E-01 -1.0963518456060E-02
157  1.5600000000000E+00 -1.2773278001771E-01 -4.5934084527089E-02
158  1.5700000000000E+00 -1.1483759227763E-01 -7.8764746486404E-02
159  1.5800000000000E+00 -1.0236018086175E-01 -1.0937405037189E-01
160  1.5900000000000E+00 -9.0345639623236E-02 -1.3769133704471E-01
161  1.6000000000000E+00 -7.8835020578912E-02 -1.6365748873874E-01
162  1.6100000000000E+00 -6.7865112015876E-02 -1.8722558973417E-01
163  1.6200000000000E+00 -5.7468246721011E-02 -2.0836149375229E-01
164  1.6300000000000E+00 -4.7672142418407E-02 -2.2704429138993E-01
165  1.6400000000000E+00 -3.8499776203081E-02 -2.4326667187872E-01
166  1.6500000000000E+00 -2.9969294486557E-02 -2.5703517429086E-01
167  1.6600000000000E+00 -2.2093959652645E-02 -2.6837032432615E-01
168  1.6700000000000E+00 -1.4882134277120E-02 -2.7730665392775E-01
169  1.6800000000000E+00 -8.3373034553211E-03 -2.8389260192481E-01
170  1.6900000000000E+00 -2.4581354112179E-03 -2.8819029510243E-01
171  1.7000000000000E+00  2.7614197755394E-03 -2.9027521015547E-01
172  1.7100000000000E+00  7.3319938523629E-03 -2.9023571815000E-01
173  1.7200000000000E+00  1.1268627356416E-02 -2.8817251419688E-01
174  1.7300000000000E+00  1.4590561069659E-02 -2.8419793612711E-01
175  1.7400000000000E+00  1.7320993534674E-02 -2.7843517710778E-01
176  1.7500000000000E+00  1.9486806502064E-02 -2.7101739807924E-01
177  1.7600000000000E+00  2.1118260494419E-02 -2.6208674689918E-01
178  1.7700000000000E+00  2.2248662978343E-02 -2.5179329206744E-01
179  1.7800000000000E+00  2.2914011883161E-02 -2.4029387967392E-01
180  1.7900000000000E+00  2.3152617454564E-02 -2.2775092301234E-01
181  1.8000000000000E+00  2.3004705702151E-02 -2.1433113519891E-01
182  1.8100000000000E+00  2.2512006638469E-02 -2.0020421477737E-01
183  1.8200000000000E+00  2.1717331266092E-02 -1.8554149709851E-01
184  1.8300000000000E+00  2.0664141071350E-02 -1.7051458342464E-01
185  1.8400000000000E+00  1.9396111735718E-02 -1.5529395180954E-01
186  1.8500000000000E+00  1.7956699468644E-02 -1.4004757939685E-01
187  1.8600000000000E+00  1.6388708687744E-02 -1.2493956871886E-01
188  1.8700000000000E+00  1.4733869667443E-02 -1.1012880680298E-01
189  1.8800000000000E+00  1.3032412314352E-02 -9.5767619327196E-02
190  1.8900000000000E+00  1.1322710965960E-02 -8.2000626486299E-02
191  1.9000000000000E+00  9.6408346281722E-03 -6.8963357742832E-02
192  1.9100000000000E+00  8.0191769716081E-03 -5.6778276696199E-02
193  1.9200000000000E+00  6.4866918353504E-03 -4.5555257501230E-02
194  1.9300000000000E+00  5.0716479369806E-03 -3.5399176397564E-02
195  1.9400000000000E+00  3.7986095869656E-03 -2.6401527545200E-02
196  1.9500000000000E+00  2.6882346677519E-03 -1.8639753544188E-02
197  1.9600000000000E+00  1.7570645848329E-03 -1.2176575852719E-02
198  1.9700000000000E+00  1.0176175272436E-03 -7.0612762397582E-03
199  1.9800000000000E+00  4.7619415726740E-04 -3.3145755073801E-03
200  1.9900000000000E+00  1.3948380231197E-04 -9.7578729908453E-04
201  2.0000000000000E+00  8.0735545740546E-06 -5.6897128338969E-05
202  2.0100000000000E+00 -4.6545150048386E-06  3.2856933488530E-05
203  2.0200000000000E+00  2.0604179028455E-06 -1.4474986889440E-05
204  2.03 -0.  0.
205  2.04 -0. -0.
206  2.05 -0. -0.
207  2.06  0.  0.
208  2.07  0.  0.
209  2.08  0.  0.
210  2.09  0.  0.
211  2.10  0.  0.
212  2.11  0.  0.
213  2.12  0.  0.
214  2.13  0.  0.
215  2.14  0.  0.
216  2.15  0.  0.
217  2.16  0.  0.
218  2.17  0.  0.
219  2.18  0.  0.
220  2.19  0.  0.
221  2.20  0.  0.
222  2.21  0.  0.
223  2.22  0.  0.
224  2.23  0.  0.
225  2.24  0.  0.
226  2.25  0.  0.
227  2.26  0.  0.
228  2.27  0.  0.
229  2.28  0.  0.
230  2.29  0.  0.
231  2.30  0.  0.
232  2.31  0.  0.
233  2.32  0.  0.
234  2.33  0.  0.
235  2.34  0.  0.
236  2.35  0.  0.
237  2.36  0.  0.
238  2.37  0.  0.
239  2.38  0.  0.
240  2.39  0.  0.
241  2.40  0.  0.
242  2.41  0.  0.
243  2.42  0.  0.
244  2.43  0.  0.
245  2.44  0.  0.
246  2.45  0.  0.
247  2.46  0.  0.
248  2.47  0.  0.
249  2.48  0.  0.
250  2.49  0.  0.
251  2.50  0.  0.
252  2.51  0.  0.
253  2.52  0.  0.
254  2.53  0.  0.
255  2.54  0.  0.
256  2.55  0.  0.
257  2.56  0.  0.
258  2.57  0.  0.
259  2.58  0.  0.
260  2.59  0.  0.
261  2.60  0.  0.
262  2.61  0.  0.
263  2.62  0.  0.
264  2.63  0.  0.
265  2.64  0.  0.
266  2.65  0.  0.
267  2.66  0.  0.
268  2.67  0.  0.
269  2.68  0.  0.
270  2.69  0.  0.
271  2.70  0.  0.
272  2.71  0.  0.
273  2.72  0.  0.
274  2.73  0.  0.
275  2.74  0.  0.
276  2.75  0.  0.
277  2.76  0.  0.
278  2.77  0.  0.
279  2.78  0.  0.
280  2.79  0.  0.
281  2.80  0.  0.
282  2.81  0.  0.
283  2.82  0.  0.
284  2.83  0.  0.
285  2.84  0.  0.
286  2.85  0.  0.
287  2.86  0.  0.
288  2.87  0.  0.
289  2.88  0.  0.
290  2.89  0.  0.
291  2.90  0.  0.
292  2.91  0.  0.
293  2.92  0.  0.
294  2.93  0.  0.
295  2.94  0.  0.
296  2.95  0.  0.
297  2.96  0.  0.
298  2.97  0.  0.
299  2.98  0.  0.
300  2.99  0.  0.
301  3.00  0.  0.
302  3.01  0.  0.
303  3.02  0.  0.
304  3.03  0.  0.
305  3.04  0.  0.
306  3.05  0.  0.
307  3.06  0.  0.
308  3.07  0.  0.
309  3.08  0.  0.
310  3.09  0.  0.
311  3.10  0.  0.
312  3.11  0.  0.
313  3.12  0.  0.
314  3.13  0.  0.
315  3.14  0.  0.
316  3.15  0.  0.
317  3.16  0.  0.
318  3.17  0.  0.
319  3.18  0.  0.
320  3.19  0.  0.
321  3.20  0.  0.
322  3.21  0.  0.
323  3.22  0.  0.
324  3.23  0.  0.
325  3.24  0.  0.
326  3.25  0.  0.
327  3.26  0.  0.
328  3.27  0.  0.
329  3.28  0.  0.
330  3.29  0.  0.
331  3.30  0.  0.
332  3.31  0.  0.
333  3.32  0.  0.
334  3.33  0.  0.
335  3.34  0.  0.
336  3.35  0.  0.
337  3.36  0.  0.
338  3.37  0.  0.
339  3.38  0.  0.
340  3.39  0.  0.
341  3.40  0.  0.
342  3.41  0.  0.
343  3.42  0.  0.
344  3.43  0.  0.
345  3.44  0.  0.
346  3.45  0.  0.
347  3.46  0.  0.
348  3.47  0.  0.
349  3.48  0.  0.
350  3.49  0.  0.
351  3.50  0.  0.
352  3.51  0.  0.
353  3.52  0.  0.
354  3.53  0.  0.
355  3.54  0.  0.
356  3.55  0.  0.
357  3.56  0.  0.
358  3.57  0.  0.
359  3.58  0.  0.
360  3.59  0.  0.
361  3.60  0.  0.
362  3.61  0.  0.
363  3.62  0.  0.
364  3.63  0.  0.
365  3.64  0.  0.
366  3.65  0.  0.
367  3.66  0.  0.
368  3.67  0.  0.
369  3.68  0.  0.
370  3.69  0.  0.
371  3.70  0.  0.
372  3.71  0.  0.
373  3.72  0.  0.
374  3.73  0.  0.
375  3.74  0.  0.
376  3.75  0.  0.
377  3.76  0.  0.
378  3.77  0.  0.
379  3.78  0.  0.
380  3.79  0.  0.
381  3.80  0.  0.
382  3.81  0.  0.
383  3.82  0.  0.
384  3.83  0.  0.
385  3.84  0.  0.
386  3.85  0.  0.
387  3.86  0.  0.
388  3.87  0.  0.
389  3.88  0.  0.
390  3.89  0.  0.
391  3.90  0.  0.
392  3.91  0.  0.
393  3.92  0.  0.
394  3.93  0.  0.
395  3.94  0.  0.
396  3.95  0.  0.
397  3.96  0.  0.
398  3.97  0.  0.
399  3.98  0.  0.
400  3.99  0.  0.
401  4.00  0.  0.
402  4.01  0.  0.
403  4.02  0.  0.
404  4.03  0.  0.
405  4.04  0.  0.
406  4.05  0.  0.
407  4.06  0.  0.
408  4.07  0.  0.
409  4.08  0.  0.
410  4.09  0.  0.
411  4.10  0.  0.
412  4.11  0.  0.
413  4.12  0.  0.
414  4.13  0.  0.
415  4.14  0.  0.
416  4.15  0.  0.
417  4.16  0.  0.
418  4.17  0.  0.
419  4.18  0.  0.
420  4.19  0.  0.
421  4.20  0.  0.
422  4.21  0.  0.
423  4.22  0.  0.
424  4.23  0.  0.
425  4.24  0.  0.
426  4.25  0.  0.
427  4.26  0.  0.
428  4.27  0.  0.
429  4.28  0.  0.
430  4.29  0.  0.
431  4.30  0.  0.
432  4.31  0.  0.
433  4.32  0.  0.
434  4.33  0.  0.
435  4.34  0.  0.
436  4.35  0.  0.
437  4.36  0.  0.
438  4.37  0.  0.
439  4.38  0.  0.
440  4.39  0.  0.
441  4.40  0.  0.
442  4.41  0.  0.
443  4.42  0.  0.
444  4.43  0.  0.
445  4.44  0.  0.
446  4.45  0.  0.
447  4.46  0.  0.
448  4.47  0.  0.
449  4.48  0.  0.
450  4.49  0.  0.
451  4.50  0.  0.
452  4.51  0.  0.
453  4.52  0.  0.
454  4.53  0.  0.
455  4.54  0.  0.
456  4.55  0.  0.
457  4.56  0.  0.
458  4.57  0.  0.
459  4.58  0.  0.
460  4.59  0.  0.
461  4.60  0.  0.
462  4.61  0.  0.
463  4.62  0.  0.
464  4.63  0.  0.
465  4.64  0.  0.
466  4.65  0.  0.
467  4.66  0.  0.
468  4.67  0.  0.
469  4.68  0.  0.
470  4.69  0.  0.
471  4.70  0.  0.
472  4.71  0.  0.
473  4.72  0.  0.
474  4.73  0.  0.
475  4.74  0.  0.
476  4.75  0.  0.
477  4.76  0.  0.
478  4.77  0.  0.
479  4.78  0.  0.
480  4.79  0.  0.
481  4.80  0.  0.
482  4.81  0.  0.
483  4.82  0.  0.
484  4.83  0.  0.
485  4.84  0.  0.
486  4.85  0.  0.
487  4.86  0.  0.
488  4.87  0.  0.
489  4.88  0.  0.
490  4.89  0.  0.
491  4.90  0.  0.
492  4.91  0.  0.
493  4.92  0.  0.
494  4.93  0.  0.
495  4.94  0.  0.
496  4.95  0.  0.
497  4.96  0.  0.
498  4.97  0.  0.
499  4.98  0.  0.
500  4.99  0.  0.
501  5.00  0.  0.
502  5.01  0.  0.
503  5.02  0.  0.
504  5.03  0.  0.
505  5.04  0.  0.
506  5.05  0.  0.
507  5.06  0.  0.
508  5.07  0.  0.
509  5.08  0.  0.
510  5.09  0.  0.
511  5.10  0.  0.
512  5.11  0.  0.
513  5.12  0.  0.
514  5.13  0.  0.
515  5.14  0.  0.
516  5.15  0.  0.
517  5.16  0.  0.
518  5.17  0.  0.
519  5.18  0.  0.
520  5.19  0.  0.
521  5.20  0.  0.
522  5.21  0.  0.
523  5.22  0.  0.
524  5.23  0.  0.
525  5.24  0.  0.
526  5.25  0.  0.
527  5.26  0.  0.
528  5.27  0.  0.
529  5.28  0.  0.
530  5.29  0.  0.
531  5.30  0.  0.
532  5.31  0.  0.
533  5.32  0.  0.
534  5.33  0.  0.
535  5.34  0.  0.
536  5.35  0.  0.
537  5.36  0.  0.
538  5.37  0.  0.
539  5.38  0.  0.
540  5.39  0.  0.
541  5.40  0.  0.
542  5.41  0.  0.
543  5.42  0.  0.
544  5.43  0.  0.
545  5.44  0.  0.
546  5.45  0.  0.
547  5.46  0.  0.
548  5.47  0.  0.
549  5.48  0.  0.
550  5.49  0.  0.
551  5.50  0.  0.
552  5.51  0.  0.
553  5.52  0.  0.
554  5.53  0.  0.
555  5.54  0.  0.
556  5.55  0.  0.
557  5.56  0.  0.
558  5.57  0.  0.
559  5.58  0.  0.
560  5.59  0.  0.
561  5.60  0.  0.
562  5.61  0.  0.
563  5.62  0.  0.
564  5.63  0.  0.
565  5.64  0.  0.
566  5.65  0.  0.
567  5.66  0.  0.
568  5.67  0.  0.
569  5.68  0.  0.
570  5.69  0.  0.
571  5.70  0.  0.
572  5.71  0.  0.
573  5.72  0.  0.
574  5.73  0.  0.
575  5.74  0.  0.
576  5.75  0.  0.
577  5.76  0.  0.
578  5.77  0.  0.
579  5.78  0.  0.
580  5.79  0.  0.
581  5.80  0.  0.
582  5.81  0.  0.
583  5.82  0.  0.
584  5.83  0.  0.
585  5.84  0.  0.
586  5.85  0.  0.
587  5.86  0.  0.
588  5.87  0.  0.
589  5.88  0.  0.
590  5.89  0.  0.
591  5.90  0.  0.
592  5.91  0.  0.
593  5.92  0.  0.
594  5.93  0.  0.
595  5.94  0.  0.
596  5.95  0.  0.
597  5.96  0.  0.
598  5.97  0.  0.
599  5.98  0.  0.
600  5.99  0.  0.
1                         6.4445780423664E+00  5.2831774630879E-01
1  0.0000000000000E+00  8.3688400653870E-10 -4.8716116557435E-09
2  1.0000000000000E-02  1.1980920205949E-03 -1.1309426719316E-03
3  2.0000000000000E-02  4.7874854009736E-03 -4.5100004352452E-03
4  3.0000000000000E-02  1.0753569129168E-02 -1.0096050608780E-02
5  4.0000000000000E-02  1.9072114485288E-02 -1.7821179557817E-02
6  5.0000000000000E-02  2.9709457839421E-02 -2.7591609347595E-02
7  6.0000000000000E-02  4.2622753289722E-02 -3.9288976008790E-02
8  7.0000000000000E-02  5.7760291920635E-02 -5.2771940701808E-02
9  8.0000000000000E-02  7.5061883624303E-02 -6.7878110195149E-02
10  9.0000000000000E-02  9.4459296651981E-02 -8.4426238548457E-02
11  1.0000000000000E-01  1.1587674935823E-01 -1.0221867777951E-01
12  1.1000000000000E-01  1.3923144797930E-01 -1.2104404165758E-01
13  1.2000000000000E-01  1.6443416375773E-01 -1.4068004365644E-01
14  1.3000000000000E-01  1.9138984229538E-01 -1.6089646756581E-01
15  1.4000000000000E-01  2.1999823769375E-01 -1.8145822733770E-01
16  1.5000000000000E-01  2.5015456382746E-01 -2.0212847146232E-01
17  1.6000000000000E-01  2.8175015499785E-01 -2.2267168654783E-01
18  1.7000000000000E-01  3.1467312822995E-01 -2.4285675482808E-01
19  1.8000000000000E-01  3.4880903960666E-01 -2.6245992104309E-01
20  1.9000000000000E-01  3.8404152727749E-01 -2.8126762551944E-01
21  2.0000000000000E-01  4.2025293413062E-01 -2.9907916230100E-01
22  2.1000000000000E-01  4.5732490357205E-01 -3.1570912381785E-01
23  2.2000000000000E-01  4.9513894240542E-01 -3.3098959679257E-01
24  2.3000000000000E-01  5.3357694544389E-01 -3.4477207782415E-01
25  2.4000000000000E-01  5.7252167719898E-01 -3.5692908130443E-01
26  2.5000000000000E-01  6.1185720677194E-01 -3.6735541695005E-01
27  2.6000000000000E-01  6.5146929290586E-01 -3.7596911920574E-01
28  2.7000000000000E-01  6.9124571703070E-01 -3.8271201602027E-01
29  2.8000000000000E-01  7.3107656303324E-01 -3.8754992993635E-01
30  2.9000000000000E-01  7.7085444339643E-01 -3.9047250999078E-01
31  3.0000000000000E-01  8.1047467226232E-01 -3.9149269850805E-01
32  3.1000000000000E-01  8.4983538686637E-01 -3.9064584240647E-01
33  3.2000000000000E-01  8.8883761965286E-01 -3.8798846403876E-01
34  3.3000000000000E-01  9.2738532419876E-01 -3.8359671177638E-01
35  3.4000000000000E-01  9.6538535883271E-01 -3.7756451544209E-01
36  3.5000000000000E-01  1.0027474325245E+00 -3.7000147622287E-01
37  3.6000000000000E-01  1.0393840182285E+00 -3.6103052478730E-01
38  3.7000000000000E-01  1.0752102393783E+00 -3.5078538492391E-01
39  3.8000000000000E-01  1.1101437356485E+00 -3.3940788305551E-01
40  3.9000000000000E-01  1.1441045144027E+00 -3.2704514641928E-01
41  4.0000000000000E-01  1.1770147944454E+00 -3.1384673449720E-01
42  4.1000000000000E-01  1.2087988487727E+00 -2.9996174940311E-01
43  4.2000000000000E-01  1.2393828529748E+00 -2.8553597136568E-01
44  4.3000000000000E-01  1.2686947457874E+00 -2.7070906517690E-01
45  4.4000000000000E-01  1.2966641080107E+00 -2.5561190250817E-01
46  4.5000000000000E-01  1.3232220656289E+00 -2.4036404333947E-01
47  4.6000000000000E-01  1.3483012224676E+00 -2.2507141742464E-01
48  4.7000000000000E-01  1.3718356271290E+00 -2.0982424375843E-01
49  4.8000000000000E-01  1.3937607782613E+00 -1.9469522246163E-01
50  4.9000000000000E-01  1.4140136714516E+00 -1.7973802940913E-01
51  5.0000000000000E-01  1.4325328901963E+00 -1.6498613935132E-01
52  5.1000000000000E-01  1.4492587425135E+00 -1.5045199829083E-01
53  5.2000000000000E-01  1.4641334438317E+00 -1.3612656054502E-01
54  5.3000000000000E-01  1.4771013458307E+00 -1.2197920033233E-01
55  5.4000000000000E-01  1.4881092099453E+00 -1.0795800194874E-01
56  5.5000000000000E-01  1.4971065232796E+00 -9.3990426739228E-02
57  5.6000000000000E-01  1.5040458537377E+00 -7.9984349204474E-02
58  5.7000000000000E-01  1.5088832402784E+00 -6.5829448807719E-02
59  5.8000000000000E-01  1.5115786133450E+00 -5.1398938447795E-02
60  5.9000000000000E-01  1.5120962397456E+00 -3.6551605229957E-02
61  6.0000000000000E-01  1.5104051855531E+00 -2.1134134179916E-02
62  6.1000000000000E-01  1.5064797899911E+00 -4.9836809860972E-03
63  6.2000000000000E-01  1.5003001427704E+00  1.2069344204025E-02
64  6.3000000000000E-01  1.4918525569562E+00  3.0198323403246E-02
65  6.4000000000000E-01  1.4811300291860E+00  4.9577352160725E-02
66  6.5000000000000E-01  1.4681326789288E+00  7.0378082236606E-02
67  6.6000000000000E-01  1.4528681584801E+00  9.2766533608938E-02
68  6.7000000000000E-01  1.4353520255305E+00  1.1689992460067E-01
69  6.8000000000000E-01  1.4156080704248E+00  1.4292356891680E-01
70  6.9000000000000E-01  1.3936685906441E+00  1.7096788762615E-01
71  7.0000000000000E-01  1.3695746055876E+00  2.0114558261609E-01
72  7.1000000000000E-01  1.3433760054045E+00  2.3354901581284E-01
73  7.2000000000000E-01  1.3151316284102E+00  2.6824783552286E-01
74  7.3000000000000E-01  1.2849092625161E+00  3.0528688765703E-01
75  7.4000000000000E-01  1.2527855670871E+00  3.4468444540078E-01
76  7.5000000000000E-01  1.2188459127077E+00  3.8643078615271E-01
77  7.6000000000000E-01  1.1831841374654E+00  4.3048713934493E-01
78  7.7000000000000E-01  1.1459022195394E+00  4.7678502316043E-01
79  7.8000000000000E-01  1.1071098670859E+00  5.2522598226352E-01
80  7.9000000000000E-01  1.0669240276290E+00  5.7568173255190E-01
81  8.0000000000000E-01  1.0254683203749E+00  6.2799471272217E-01
82  8.1000000000000E-01  9.8287239604613E-01  6.8197903621152E-01
83  8.2000000000000E-01  9.3927122996502E-01  7.3742183094326E-01
84  8.3000000000000E-01  8.9480435518391E-01  7.9408494835866E-01
85  8.4000000000000E-01  8.4961504343996E-01  8.5170701756573E-01
86  8.5000000000000E-01  8.0384944259373E-01  9.1000581516906E-01
87  8.6000000000000E-01  7.5765567997283E-01  9.6868091655724E-01
88  8.7000000000000E-01  7.1118294167198E-01  1.0274165901959E+00
89  8.8000000000000E-01  6.6458053834537E-01  1.0858848928825E+00
90  8.9000000000000E-01  6.1799696835581E-01  1.1437489210302E+00
91  9.0000000000000E-01  5.7157898930906E-01  1.2006661709127E+00
92  9.1000000000000E-01  5.2547070899395E-01  1.2562919594725E+00
93  9.2000000000000E-01  4.7981270656720E-01  1.3102828567905E+00
94  9.3000000000000E-01  4.3474119446332E-01  1.3623000816628E+00
95  9.4000000000000E-01  3.9038723097692E-01  1.4120128129286E+00
96  9.5000000000000E-01  3.4687599276213E-01  1.4591013712313E+00
97  9.6000000000000E-01  3.0432611562670E-01  1.5032602287488E+00
98  9.7000000000000E-01  2.6284911097826E-01  1.5442008080613E+00
99  9.8000000000000E-01  2.2254886411832E-01  1.5816540356724E+00
100  9.9000000000000E-01  1.8352121929094E-01  1.6153726207116E+00
101  1.0000000000000E+00  1.4585365499501E-01  1.6451330349236E+00
102  1.0100000000000E+00  1.0962505158089E-01  1.6707371761169E+00
103  1.0200000000000E+00  7.4905551594534E-02  1.6920137036878E+00
104  1.0300000000000E+00  4.1756511731791E-02  1.7088190415428E+00
105  1.0400000000000E+00  1.0230543641140E-02  1.7210380505980E+00
106  1.0500000000000E+00 -1.9628360801952E-02  1.7285843799017E+00
107  1.0600000000000E+00 -4.7784625708122E-02  1.7314005121655E+00
108  1.0700000000000E+00 -7.4210816355566E-02  1.7294575259767E+00
109  1.0800000000000E+00 -9.8887302247186E-02  1.7227546030334E+00
110  1.0900000000000E+00 -1.2180186825983E-01  1.7113183142618E+00
111  1.1000000000000E+00 -1.4294928525666E-01  1.6952017234941E+00
112  1.1100000000000E+00 -1.6233085250749E-01  1.6744833513440E+00
113  1.1200000000000E+00 -1.7995392502446E-01  1.6492660448885E+00
114  1.1300000000000E+00 -1.9583143943920E-01  1.6196758005861E+00
115  1.1400000000000E+00 -2.0998145229606E-01  1.5858605883983E+00
116  1.1500000000000E+00 -2.2242670458294E-01  1.5479892242028E+00
117  1.1600000000000E+00 -2.3319422593594E-01  1.5062503351239E+00
118  1.1700000000000E+00 -2.4231499121380E-01  1.4608514582878E+00
119  1.1800000000000E+00 -2.4982364100488E-01  1.4120183075185E+00
120  1.1900000000000E+00 -2.5575827608609E-01  1.3599942345973E+00
121  1.2000000000000E+00 -2.6016033386434E-01  1.3050399017129E+00
122  1.2100000000000E+00 -2.6307455236479E-01  1.2474331695150E+00
123  1.2200000000000E+00 -2.6454902438289E-01  1.1874691907375E+00
124  1.2300000000000E+00 -2.6463534091106E-01  1.1254606823148E+00
125  1.2400000000000E+00 -2.6338881892194E-01  1.0617383294758E+00
126  1.2500000000000E+00 -2.6086880395121E-01  9.9665125304492E-01
127  1.2600000000000E+00 -2.5713903266058E-01  9.3056744608454E-01
128  1.2700000000000E+00 -2.5226803468466E-01  8.6387405811170E-01
129  1.2800000000000E+00 -2.4632954645359E-01  7.9697737388195E-01
130  1.2900000000000E+00 -2.3940290237388E-01  7.3030229933585E-01
131  1.3000000000000E+00 -2.3157336070420E-01  6.6429112959086E-01
132  1.3100000000000E+00 -2.2293231256012E-01  5.9940133228029E-01
133  1.3200000000000E+00 -2.1357731276811E-01  5.3610203433360E-01
134  1.3300000000000E+00 -2.0361186068323E-01  4.7486885109222E-01