Er    ONCVPSP-4.0.1  r_core=   2.00187   1.60440   1.90833   1.40655
68.0000     22.0000      250626    zatom,zion,pspd
8      11   3     4   600     0    pspcod,pspxc,lmax,lloc,mmax,r2well
5.99000000  9.40000000  0.00000000    rchrg fchrg qchrg
2     2     2     2     0    nproj
1     1           extension_switch
0                         7.2023921514758E+00  1.0024524771480E+00
1  0.0000000000000E+00  7.7104045370646E-11 -2.1827645593775E-10
2  1.0000000000000E-02  4.3594891629882E-02 -3.4448927519903E-03
3  2.0000000000000E-02  8.7161158458285E-02 -6.9174698730790E-03
4  3.0000000000000E-02  1.3067001701484E-01 -1.0444891835313E-02
5  4.0000000000000E-02  1.7409236856048E-01 -1.4053276977932E-02
6  5.0000000000000E-02  2.1739864660616E-01 -1.7767194538390E-02
7  6.0000000000000E-02  2.6055867056016E-01 -2.1609174444491E-02
8  7.0000000000000E-02  3.0354150745595E-01 -2.5599239196516E-02
9  8.0000000000000E-02  3.4631534363506E-01 -2.9754462949949E-02
10  9.0000000000000E-02  3.8884736816468E-01 -3.4088562640316E-02
11  1.0000000000000E-01  4.3110366965714E-01 -3.8611525674075E-02
12  1.1000000000000E-01  4.7304914802998E-01 -4.3329278346571E-02
13  1.2000000000000E-01  5.1464744260155E-01 -4.8243398742771E-02
14  1.3000000000000E-01  5.5586087775971E-01 -5.3350877432808E-02
15  1.4000000000000E-01  5.9665042727089E-01 -5.8643928796327E-02
16  1.5000000000000E-01  6.3697569811591E-01 -6.4109855301437E-02
17  1.6000000000000E-01  6.7679493454849E-01 -6.9730966530845E-02
18  1.7000000000000E-01  7.1606504287398E-01 -7.5484554193968E-02
19  1.8000000000000E-01  7.5474163724200E-01 -8.1342923795334E-02
20  1.9000000000000E-01  7.9277910653797E-01 -8.7273483050956E-02
21  2.0000000000000E-01  8.3013070224820E-01 -9.3238886561943E-02
22  2.1000000000000E-01  8.6674864696224E-01 -9.9197235673538E-02
23  2.2000000000000E-01  9.0258426296671E-01 -1.0510233187351E-01
24  2.3000000000000E-01  9.3758812017896E-01 -1.1090398152279E-01
25  2.4000000000000E-01  9.7171020246866E-01 -1.1654834916794E-01
26  2.5000000000000E-01  1.0049000912220E+00 -1.2197835616605E-01
27  2.6000000000000E-01  1.0371071648194E+00 -1.2713412086209E-01
28  2.7000000000000E-01  1.0682808125245E+00 -1.3195343610300E-01
29  2.8000000000000E-01  1.0983706611216E+00 -1.3637227945559E-01
30  2.9000000000000E-01  1.1273268124929E+00 -1.4032535112142E-01
31  3.0000000000000E-01  1.1551000901957E+00 -1.4374663421644E-01
32  3.1000000000000E-01  1.1816422929872E+00 -1.4656997180798E-01
33  3.2000000000000E-01  1.2069064531487E+00 -1.4872965488211E-01
34  3.3000000000000E-01  1.2308470973850E+00 -1.5016101525220E-01
35  3.4000000000000E-01  1.2534205080207E+00 -1.5080101731665E-01
36  3.5000000000000E-01  1.2745849821788E+00 -1.5058884253331E-01
37  3.6000000000000E-01  1.2943010866160E+00 -1.4946646049988E-01
38  3.7000000000000E-01  1.3125319058957E+00 -1.4737918061487E-01
39  3.8000000000000E-01  1.3292432816142E+00 -1.4427617844277E-01
40  3.9000000000000E-01  1.3444040404443E+00 -1.4011099111814E-01
41  4.0000000000000E-01  1.3579862088405E+00 -1.3484197639651E-01
42  4.1000000000000E-01  1.3699652123407E+00 -1.2843273029239E-01
43  4.2000000000000E-01  1.3803200575208E+00 -1.2085245863384E-01
44  4.3000000000000E-01  1.3890334947922E+00 -1.1207629830646E-01
45  4.4000000000000E-01  1.3960921603886E+00 -1.0208558445282E-01
46  4.5000000000000E-01  1.4014866960607E+00 -9.0868060431988E-02
47  4.6000000000000E-01  1.4052118451858E+00 -7.8418027924037E-02
48  4.7000000000000E-01  1.4072665242031E+00 -6.4736435178871E-02
49  4.8000000000000E-01  1.4076538684996E+00 -4.9830902054172E-02
50  4.9000000000000E-01  1.4063812520985E+00 -3.3715681154598E-02
51  5.0000000000000E-01  1.4034602807360E+00 -1.6411555069765E-02
52  5.1000000000000E-01  1.3989067581541E+00  2.0543295972658E-03
53  5.2000000000000E-01  1.3927406256812E+00  2.1648690021720E-02
54  5.3000000000000E-01  1.3849858754193E+00  4.2332394687376E-02
55  5.4000000000000E-01  1.3756704376041E+00  6.4060807892656E-02
56  5.5000000000000E-01  1.3648260429468E+00  8.6784187808832E-02
57  5.6000000000000E-01  1.3524880610029E+00  1.1044813403193E-01
58  5.7000000000000E-01  1.3386953158470E+00  1.3499407996931E-01
59  5.8000000000000E-01  1.3234898805493E+00  1.6035982484221E-01
60  5.9000000000000E-01  1.3069168521602E+00  1.8648009957336E-01
61  6.0000000000000E-01  1.2890241090992E+00  2.1328716037054E-01
62  6.1000000000000E-01  1.2698620530256E+00  2.4071140341835E-01
63  6.2000000000000E-01  1.2494833374230E+00  2.6868199375738E-01
64  6.3000000000000E-01  1.2279425852688E+00  2.9712750116590E-01
65  6.4000000000000E-01  1.2052960982790E+00  3.2597653566993E-01
66  6.5000000000000E-01  1.1816015603070E+00  3.5515837519523E-01
67  6.6000000000000E-01  1.1569177375489E+00  3.8460357784238E-01
68  6.7000000000000E-01  1.1313041782489E+00  4.1424457131591E-01
69  6.8000000000000E-01  1.1048209146191E+00  4.4401621217084E-01
70  6.9000000000000E-01  1.0775281696758E+00  4.7385630775618E-01
71  7.0000000000000E-01  1.0494860716664E+00  5.0370609403245E-01
72  7.1000000000000E-01  1.0207543786927E+00  5.3351066282038E-01
73  7.2000000000000E-01  9.9139221605722E-01  5.6321933249507E-01
74  7.3000000000000E-01  9.6145782874037E-01  5.9278595667396E-01
75  7.4000000000000E-01  9.3100835128490E-01  6.2216916605091E-01
76  7.5000000000000E-01  9.0009959720022E-01  6.5133253920114E-01
77  7.6000000000000E-01  8.6878586981885E-01  6.8024469891339E-01
78  7.7000000000000E-01  8.3711979633308E-01  7.0887933139428E-01
79  7.8000000000000E-01  8.0515218651808E-01  7.3721512652491E-01
80  7.9000000000000E-01  7.7293191740796E-01  7.6523563822730E-01
81  8.0000000000000E-01  7.4050584493651E-01  7.9292906490782E-01
82  8.1000000000000E-01  7.0791874328647E-01  8.2028795088015E-01
83  8.2000000000000E-01  6.7521327241199E-01  8.4730881062183E-01
84  8.3000000000000E-01  6.4242997391145E-01  8.7399167867852E-01
85  8.4000000000000E-01  6.0960729513343E-01  9.0033958898863E-01
86  8.5000000000000E-01  5.7678164110063E-01  9.2635798835105E-01
87  8.6000000000000E-01  5.4398745353622E-01  9.5205408968957E-01
88  8.7000000000000E-01  5.1125731597799E-01  9.7743617167245E-01
89  8.8000000000000E-01  4.7862208366856E-01  1.0025128321147E+00
90  8.9000000000000E-01  4.4611103661868E-01  1.0272922034168E+00
91  9.0000000000000E-01  4.1375205395566E-01  1.0517811390692E+00
92  9.1000000000000E-01  3.8157180739382E-01  1.0759843809673E+00
93  9.2000000000000E-01  3.4959597139956E-01  1.0999037179330E+00
94  9.3000000000000E-01  3.1784944737219E-01  1.1235371464202E+00
95  9.4000000000000E-01  2.8635659892557E-01  1.1468780448756E+00
96  9.5000000000000E-01  2.5514149513507E-01  1.1699143736509E+00
97  9.6000000000000E-01  2.2422815841321E-01  1.1926279126802E+00
98  9.7000000000000E-01  1.9364081349482E-01  1.2149935493719E+00
99  9.8000000000000E-01  1.6340413385223E-01  1.2369786292941E+00
100  9.9000000000000E-01  1.3354348172328E-01  1.2585423822565E+00
101  1.0000000000000E+00  1.0408513782249E-01  1.2796354363059E+00
102  1.0100000000000E+00  7.5056516718809E-02  1.3001994319545E+00
103  1.0200000000000E+00  4.6486363806375E-02  1.3201667486344E+00
104  1.0300000000000E+00  1.8404929766851E-02  1.3394603549259E+00
105  1.0400000000000E+00 -9.1558815717301E-03  1.3579937935246E+00
106  1.0500000000000E+00 -3.6162396033321E-02  1.3756713111886E+00
107  1.0600000000000E+00 -6.2579086522724E-02  1.3923881430403E+00
108  1.0700000000000E+00 -8.8368528935496E-02  1.4080309595617E+00
109  1.0800000000000E+00 -1.1349140023069E-01  1.4224784834341E+00
110  1.0900000000000E+00 -1.3790652212856E-01  1.4356022819880E+00
111  1.1000000000000E+00 -1.6157095361971E-01  1.4472677394618E+00
112  1.1100000000000E+00 -1.8444013513590E-01  1.4573352114866E+00
113  1.1200000000000E+00 -2.0646808682667E-01  1.4656613622057E+00
114  1.1300000000000E+00 -2.2760766290771E-01  1.4721006821855E+00
115  1.1400000000000E+00 -2.4781086348209E-01  1.4765071827475E+00
116  1.1500000000000E+00 -2.6702920458346E-01  1.4787362595453E+00
117  1.1600000000000E+00 -2.8521414643237E-01  1.4786467150659E+00
118  1.1700000000000E+00 -3.0231757903303E-01  1.4761029262686E+00
119  1.1800000000000E+00 -3.1829236324625E-01  1.4709771397014E+00
120  1.1900000000000E+00 -3.3309292435290E-01  1.4631518721754E+00
121  1.2000000000000E+00 -3.4667589385220E-01  1.4525223903548E+00
122  1.2100000000000E+00 -3.5900079380517E-01  1.4389992374029E+00
123  1.2200000000000E+00 -3.7003075643558E-01  1.4225107691153E+00
124  1.2300000000000E+00 -3.7973326989588E-01  1.4030056556298E+00
125  1.2400000000000E+00 -3.8808093911431E-01  1.3804552979106E+00
126  1.2500000000000E+00 -3.9505224841352E-01  1.3548561006022E+00
127  1.2600000000000E+00 -4.0063231012555E-01  1.3262315345314E+00
128  1.2700000000000E+00 -4.0481358072239E-01  1.2946339131016E+00
129  1.2800000000000E+00 -4.0759652297864E-01  1.2601457968992E+00
130  1.2900000000000E+00 -4.0899018939821E-01  1.2228809300650E+00
131  1.3000000000000E+00 -4.0901269855051E-01  1.1829846003203E+00
132  1.3100000000000E+00 -4.0769157201800E-01  1.1406333017950E+00
133  1.3200000000000E+00 -4.0506389537714E-01  1.0960335660680E+00
134  1.3300000000000E+00 -4.0117626198110E-01  1.0494198119635E+00
135  1.3400000000000E+00 -3.9608445326145E-01  1.0010510485969E+00
136  1.3500000000000E+00 -3.8985280378456E-01  9.5120624880751E-01
137  1.3600000000000E+00 -3.8255319339054E-01  9.0017819148576E-01
138  1.3700000000000E+00 -3.7426360237406E-01  8.4826555127892E-01
139  1.3800000000000E+00 -3.6506615878867E-01  7.9576299258904E-01
140  1.3900000000000E+00 -3.5504459919621E-01  7.4294899963283E-01
141  1.4000000000000E+00 -3.4428107212078E-01  6.9007123921970E-01
142  1.4100000000000E+00 -3.3285208086935E-01  6.3732851919349E-01
143  1.4200000000000E+00 -3.2082616988403E-01  5.8486420251711E-01
144  1.4300000000000E+00 -3.0826939422580E-01  5.3280269747110E-01
145  1.4400000000000E+00 -2.9524908755917E-01  4.8127271251352E-01
146  1.4500000000000E+00 -2.8183352174614E-01  4.3040615927845E-01
147  1.4600000000000E+00 -2.6809161784719E-01  3.8033741747584E-01
148  1.4700000000000E+00 -2.5409260586098E-01  3.3120233176223E-01
149  1.4800000000000E+00 -2.3990567328238E-01  2.8313717469190E-01
150  1.4900000000000E+00 -2.2559960493851E-01  2.3627758117743E-01
151  1.5000000000000E+00 -2.1124241665223E-01  1.9075746112072E-01
152  1.5100000000000E+00 -1.9690098586394E-01  1.4670790000283E-01
153  1.5200000000000E+00 -1.8264068247032E-01  1.0425605772285E-01
154  1.5300000000000E+00 -1.6852500317272E-01  6.3524076056167E-02
155  1.5400000000000E+00 -1.5461521263477E-01  2.4628005117518E-02
156  1.5500000000000E+00 -1.4096999478368E-01 -1.2323240599405E-02
157  1.5600000000000E+00 -1.2764511777223E-01 -4.7228885099856E-02
158  1.5700000000000E+00 -1.1469311464685E-01 -7.9997247927076E-02
159  1.5800000000000E+00 -1.0216298508500E-01 -1.1054663495553E-01
160  1.5900000000000E+00 -9.0099918520307E-02 -1.3880616583538E-01
161  1.6000000000000E+00 -7.8545043272713E-02 -1.6471652068742E-01
162  1.6100000000000E+00 -6.7535203456667E-02 -1.8823060159436E-01
163  1.6200000000000E+00 -5.7102766205586E-02 -2.0931410052401E-01
164  1.6300000000000E+00 -4.7275461285140E-02 -2.2794596711170E-01
165  1.6400000000000E+00 -3.8076254893981E-02 -2.4411877058196E-01
166  1.6500000000000E+00 -2.9523259178050E-02 -2.5783895091989E-01
167  1.6600000000000E+00 -2.1629678663694E-02 -2.6912695542516E-01
168  1.6700000000000E+00 -1.4403794469115E-02 -2.7801725789185E-01
169  1.6800000000000E+00 -7.8489868413962E-03 -2.8455825861352E-01
170  1.6900000000000E+00 -1.9637961934543E-03 -2.8881206461779E-01
171  1.7000000000000E+00  3.2579775224878E-03 -2.9085415058699E-01
172  1.7100000000000E+00  7.8271376366428E-03 -2.9077290209896E-01
173  1.7200000000000E+00  1.1758916652669E-02 -2.8866904389562E-01
174  1.7300000000000E+00  1.5072766429247E-02 -2.8465495698601E-01
175  1.7400000000000E+00  1.7792114228301E-02 -2.7885388952759E-01
176  1.7500000000000E+00  1.9944086512620E-02 -2.7139906738366E-01
177  1.7600000000000E+00  2.1559202691532E-02 -2.6243271126008E-01
178  1.7700000000000E+00  2.2671041328793E-02 -2.5210496834137E-01
179  1.7800000000000E+00  2.3315881481232E-02 -2.4057276675457E-01
180  1.7900000000000E+00  2.3532322628589E-02 -2.2799860407074E-01
181  1.8000000000000E+00  2.3360885229032E-02 -2.1454927541800E-01
182  1.8100000000000E+00  2.2843596642948E-02 -2.0039455707078E-01
183  1.8200000000000E+00  2.2023566937585E-02 -1.8570586039318E-01
184  1.8300000000000E+00  2.0944553397484E-02 -1.7065484904015E-01
185  1.8400000000000E+00  1.9650524356161E-02 -1.5541205762204E-01
186  1.8500000000000E+00  1.8185221125623E-02 -1.4014550446249E-01
187  1.8600000000000E+00  1.6591724024955E-02 -1.2501931885157E-01
188  1.8700000000000E+00  1.4912027493905E-02 -1.1019239762495E-01
189  1.8800000000000E+00  1.3186611429706E-02 -9.5817056914179E-02
190  1.8900000000000E+00  1.1454083939497E-02 -8.2037887050041E-02
191  1.9000000000000E+00  9.7507288808798E-03 -6.8990363593955E-02
192  1.9100000000000E+00  8.1091330680308E-03 -5.6796860401448E-02
193  1.9200000000000E+00  6.5584231207101E-03 -4.5567137406173E-02
194  1.9300000000000E+00  5.1270227045523E-03 -3.5405966601970E-02
195  1.9400000000000E+00  3.8396221543140E-03 -2.6404700158121E-02
196  1.9500000000000E+00  2.7169760820912E-03 -1.8640602642037E-02
197  1.9600000000000E+00  1.7756928089944E-03 -1.2176182117502E-02
198  1.9700000000000E+00  1.0283298689601E-03 -7.0604715840304E-03
199  1.9800000000000E+00  4.8117805471090E-04 -3.3139158842542E-03
200  1.9900000000000E+00  1.4093689371249E-04 -9.7550457545262E-04
201  2.0000000000000E+00  8.1570911042914E-06 -5.6874017180710E-05
202  2.0100000000000E+00 -4.7027846459836E-06  3.2842972356006E-05
203  2.0200000000000E+00  2.0818223704815E-06 -1.4469740764244E-05
204  2.03 -0.  0.
205  2.04 -0. -0.
206  2.05 -0. -0.
207  2.06  0.  0.
208  2.07  0.  0.
209  2.08  0.  0.
210  2.09  0.  0.
211  2.10  0.  0.
212  2.11  0.  0.
213  2.12  0.  0.
214  2.13  0.  0.
215  2.14  0.  0.
216  2.15  0.  0.
217  2.16  0.  0.
218  2.17  0.  0.
219  2.18  0.  0.
220  2.19  0.  0.
221  2.20  0.  0.
222  2.21  0.  0.
223  2.22  0.  0.
224  2.23  0.  0.
225  2.24  0.  0.
226  2.25  0.  0.
227  2.26  0.  0.
228  2.27  0.  0.
229  2.28  0.  0.
230  2.29  0.  0.
231  2.30  0.  0.
232  2.31  0.  0.
233  2.32  0.  0.
234  2.33  0.  0.
235  2.34  0.  0.
236  2.35  0.  0.
237  2.36  0.  0.
238  2.37  0.  0.
239  2.38  0.  0.
240  2.39  0.  0.
241  2.40  0.  0.
242  2.41  0.  0.
243  2.42  0.  0.
244  2.43  0.  0.
245  2.44  0.  0.
246  2.45  0.  0.
247  2.46  0.  0.
248  2.47  0.  0.
249  2.48  0.  0.
250  2.49  0.  0.
251  2.50  0.  0.
252  2.51  0.  0.
253  2.52  0.  0.
254  2.53  0.  0.
255  2.54  0.  0.
256  2.55  0.  0.
257  2.56  0.  0.
258  2.57  0.  0.
259  2.58  0.  0.
260  2.59  0.  0.
261  2.60  0.  0.
262  2.61  0.  0.
263  2.62  0.  0.
264  2.63  0.  0.
265  2.64  0.  0.
266  2.65  0.  0.
267  2.66  0.  0.
268  2.67  0.  0.
269  2.68  0.  0.
270  2.69  0.  0.
271  2.70  0.  0.
272  2.71  0.  0.
273  2.72  0.  0.
274  2.73  0.  0.
275  2.74  0.  0.
276  2.75  0.  0.
277  2.76  0.  0.
278  2.77  0.  0.
279  2.78  0.  0.
280  2.79  0.  0.
281  2.80  0.  0.
282  2.81  0.  0.
283  2.82  0.  0.
284  2.83  0.  0.
285  2.84  0.  0.
286  2.85  0.  0.
287  2.86  0.  0.
288  2.87  0.  0.
289  2.88  0.  0.
290  2.89  0.  0.
291  2.90  0.  0.
292  2.91  0.  0.
293  2.92  0.  0.
294  2.93  0.  0.
295  2.94  0.  0.
296  2.95  0.  0.
297  2.96  0.  0.
298  2.97  0.  0.
299  2.98  0.  0.
300  2.99  0.  0.
301  3.00  0.  0.
302  3.01  0.  0.
303  3.02  0.  0.
304  3.03  0.  0.
305  3.04  0.  0.
306  3.05  0.  0.
307  3.06  0.  0.
308  3.07  0.  0.
309  3.08  0.  0.
310  3.09  0.  0.
311  3.10  0.  0.
312  3.11  0.  0.
313  3.12  0.  0.
314  3.13  0.  0.
315  3.14  0.  0.
316  3.15  0.  0.
317  3.16  0.  0.
318  3.17  0.  0.
319  3.18  0.  0.
320  3.19  0.  0.
321  3.20  0.  0.
322  3.21  0.  0.
323  3.22  0.  0.
324  3.23  0.  0.
325  3.24  0.  0.
326  3.25  0.  0.
327  3.26  0.  0.
328  3.27  0.  0.
329  3.28  0.  0.
330  3.29  0.  0.
331  3.30  0.  0.
332  3.31  0.  0.
333  3.32  0.  0.
334  3.33  0.  0.
335  3.34  0.  0.
336  3.35  0.  0.
337  3.36  0.  0.
338  3.37  0.  0.
339  3.38  0.  0.
340  3.39  0.  0.
341  3.40  0.  0.
342  3.41  0.  0.
343  3.42  0.  0.
344  3.43  0.  0.
345  3.44  0.  0.
346  3.45  0.  0.
347  3.46  0.  0.
348  3.47  0.  0.
349  3.48  0.  0.
350  3.49  0.  0.
351  3.50  0.  0.
352  3.51  0.  0.
353  3.52  0.  0.
354  3.53  0.  0.
355  3.54  0.  0.
356  3.55  0.  0.
357  3.56  0.  0.
358  3.57  0.  0.
359  3.58  0.  0.
360  3.59  0.  0.
361  3.60  0.  0.
362  3.61  0.  0.
363  3.62  0.  0.
364  3.63  0.  0.
365  3.64  0.  0.
366  3.65  0.  0.
367  3.66  0.  0.
368  3.67  0.  0.
369  3.68  0.  0.
370  3.69  0.  0.
371  3.70  0.  0.
372  3.71  0.  0.
373  3.72  0.  0.
374  3.73  0.  0.
375  3.74  0.  0.
376  3.75  0.  0.
377  3.76  0.  0.
378  3.77  0.  0.
379  3.78  0.  0.
380  3.79  0.  0.
381  3.80  0.  0.
382  3.81  0.  0.
383  3.82  0.  0.
384  3.83  0.  0.
385  3.84  0.  0.
386  3.85  0.  0.
387  3.86  0.  0.
388  3.87  0.  0.
389  3.88  0.  0.
390  3.89  0.  0.
391  3.90  0.  0.
392  3.91  0.  0.
393  3.92  0.  0.
394  3.93  0.  0.
395  3.94  0.  0.
396  3.95  0.  0.
397  3.96  0.  0.
398  3.97  0.  0.
399  3.98  0.  0.
400  3.99  0.  0.
401  4.00  0.  0.
402  4.01  0.  0.
403  4.02  0.  0.
404  4.03  0.  0.
405  4.04  0.  0.
406  4.05  0.  0.
407  4.06  0.  0.
408  4.07  0.  0.
409  4.08  0.  0.
410  4.09  0.  0.
411  4.10  0.  0.
412  4.11  0.  0.
413  4.12  0.  0.
414  4.13  0.  0.
415  4.14  0.  0.
416  4.15  0.  0.
417  4.16  0.  0.
418  4.17  0.  0.
419  4.18  0.  0.
420  4.19  0.  0.
421  4.20  0.  0.
422  4.21  0.  0.
423  4.22  0.  0.
424  4.23  0.  0.
425  4.24  0.  0.
426  4.25  0.  0.
427  4.26  0.  0.
428  4.27  0.  0.
429  4.28  0.  0.
430  4.29  0.  0.
431  4.30  0.  0.
432  4.31  0.  0.
433  4.32  0.  0.
434  4.33  0.  0.
435  4.34  0.  0.
436  4.35  0.  0.
437  4.36  0.  0.
438  4.37  0.  0.
439  4.38  0.  0.
440  4.39  0.  0.
441  4.40  0.  0.
442  4.41  0.  0.
443  4.42  0.  0.
444  4.43  0.  0.
445  4.44  0.  0.
446  4.45  0.  0.
447  4.46  0.  0.
448  4.47  0.  0.
449  4.48  0.  0.
450  4.49  0.  0.
451  4.50  0.  0.
452  4.51  0.  0.
453  4.52  0.  0.
454  4.53  0.  0.
455  4.54  0.  0.
456  4.55  0.  0.
457  4.56  0.  0.
458  4.57  0.  0.
459  4.58  0.  0.
460  4.59  0.  0.
461  4.60  0.  0.
462  4.61  0.  0.
463  4.62  0.  0.
464  4.63  0.  0.
465  4.64  0.  0.
466  4.65  0.  0.
467  4.66  0.  0.
468  4.67  0.  0.
469  4.68  0.  0.
470  4.69  0.  0.
471  4.70  0.  0.
472  4.71  0.  0.
473  4.72  0.  0.
474  4.73  0.  0.
475  4.74  0.  0.
476  4.75  0.  0.
477  4.76  0.  0.
478  4.77  0.  0.
479  4.78  0.  0.
480  4.79  0.  0.
481  4.80  0.  0.
482  4.81  0.  0.
483  4.82  0.  0.
484  4.83  0.  0.
485  4.84  0.  0.
486  4.85  0.  0.
487  4.86  0.  0.
488  4.87  0.  0.
489  4.88  0.  0.
490  4.89  0.  0.
491  4.90  0.  0.
492  4.91  0.  0.
493  4.92  0.  0.
494  4.93  0.  0.
495  4.94  0.  0.
496  4.95  0.  0.
497  4.96  0.  0.
498  4.97  0.  0.
499  4.98  0.  0.
500  4.99  0.  0.
501  5.00  0.  0.
502  5.01  0.  0.
503  5.02  0.  0.
504  5.03  0.  0.
505  5.04  0.  0.
506  5.05  0.  0.
507  5.06  0.  0.
508  5.07  0.  0.
509  5.08  0.  0.
510  5.09  0.  0.
511  5.10  0.  0.
512  5.11  0.  0.
513  5.12  0.  0.
514  5.13  0.  0.
515  5.14  0.  0.
516  5.15  0.  0.
517  5.16  0.  0.
518  5.17  0.  0.
519  5.18  0.  0.
520  5.19  0.  0.
521  5.20  0.  0.
522  5.21  0.  0.
523  5.22  0.  0.
524  5.23  0.  0.
525  5.24  0.  0.
526  5.25  0.  0.
527  5.26  0.  0.
528  5.27  0.  0.
529  5.28  0.  0.
530  5.29  0.  0.
531  5.30  0.  0.
532  5.31  0.  0.
533  5.32  0.  0.
534  5.33  0.  0.
535  5.34  0.  0.
536  5.35  0.  0.
537  5.36  0.  0.
538  5.37  0.  0.
539  5.38  0.  0.
540  5.39  0.  0.
541  5.40  0.  0.
542  5.41  0.  0.
543  5.42  0.  0.
544  5.43  0.  0.
545  5.44  0.  0.
546  5.45  0.  0.
547  5.46  0.  0.
548  5.47  0.  0.
549  5.48  0.  0.
550  5.49  0.  0.
551  5.50  0.  0.
552  5.51  0.  0.
553  5.52  0.  0.
554  5.53  0.  0.
555  5.54  0.  0.
556  5.55  0.  0.
557  5.56  0.  0.
558  5.57  0.  0.
559  5.58  0.  0.
560  5.59  0.  0.
561  5.60  0.  0.
562  5.61  0.  0.
563  5.62  0.  0.
564  5.63  0.  0.
565  5.64  0.  0.
566  5.65  0.  0.
567  5.66  0.  0.
568  5.67  0.  0.
569  5.68  0.  0.
570  5.69  0.  0.
571  5.70  0.  0.
572  5.71  0.  0.
573  5.72  0.  0.
574  5.73  0.  0.
575  5.74  0.  0.
576  5.75  0.  0.
577  5.76  0.  0.
578  5.77  0.  0.
579  5.78  0.  0.
580  5.79  0.  0.
581  5.80  0.  0.
582  5.81  0.  0.
583  5.82  0.  0.
584  5.83  0.  0.
585  5.84  0.  0.
586  5.85  0.  0.
587  5.86  0.  0.
588  5.87  0.  0.
589  5.88  0.  0.
590  5.89  0.  0.
591  5.90  0.  0.
592  5.91  0.  0.
593  5.92  0.  0.
594  5.93  0.  0.
595  5.94  0.  0.
596  5.95  0.  0.
597  5.96  0.  0.
598  5.97  0.  0.
599  5.98  0.  0.
600  5.99  0.  0.
1                         6.5098914960254E+00  5.4521131557974E-01
1  0.0000000000000E+00  5.6537617643126E-10 -3.6894624994011E-09
2  1.0000000000000E-02  1.1843032745158E-03 -1.0493433398813E-03
3  2.0000000000000E-02  4.7327142151536E-03 -4.1853980225744E-03
4  3.0000000000000E-02  1.0631765083436E-02 -9.3723901194795E-03
5  4.0000000000000E-02  1.8859105701432E-02 -1.6551201296395E-02
6  5.0000000000000E-02  2.9383646433917E-02 -2.5640118948822E-02
7  6.0000000000000E-02  4.2165756183587E-02 -3.6535872119690E-02
8  7.0000000000000E-02  5.7157513253444E-02 -4.9114939156777E-02
9  8.0000000000000E-02  7.4303006365033E-02 -6.3235109377596E-02
10  9.0000000000000E-02  9.3538682591006E-02 -7.8737277557427E-02
11  1.0000000000000E-01  1.1479373847216E-01 -9.5447446887485E-02
12  1.1000000000000E-01  1.3799055014885E-01 -1.1317891320661E-01
13  1.2000000000000E-01  1.6304513795070E-01 -1.3173460083271E-01
14  1.3000000000000E-01  1.8986766056138E-01 -1.5090951824036E-01
15  1.4000000000000E-01  2.1836293361141E-01 -1.7049330018005E-01
16  1.5000000000000E-01  2.4843096735493E-01 -1.9027280163461E-01
17  1.6000000000000E-01  2.7996751795887E-01 -2.1003470827725E-01
18  1.7000000000000E-01  3.1286464687639E-01 -2.2956812784549E-01
19  1.8000000000000E-01  3.4701128279180E-01 -2.4866712708092E-01
20  1.9000000000000E-01  3.8229378071134E-01 -2.6713317960454E-01
21  2.0000000000000E-01  4.1859647293190E-01 -2.8477749129582E-01
22  2.1000000000000E-01  4.5580220684583E-01 -3.0142317140454E-01
23  2.2000000000000E-01  4.9379286483187E-01 -3.1690721972917E-01
24  2.3000000000000E-01  5.3244986183539E-01 -3.3108230271780E-01
25  2.4000000000000E-01  5.7165461665153E-01 -3.4381829425556E-01
26  2.5000000000000E-01  6.1128899338609E-01 -3.5500356015798E-01
27  2.6000000000000E-01  6.5123571007562E-01 -3.6454596895283E-01
28  2.7000000000000E-01  6.9137871199262E-01 -3.7237361535407E-01
29  2.8000000000000E-01  7.3160350773677E-01 -3.7843524686329E-01
30  2.9000000000000E-01  7.7179746681019E-01 -3.8270038811951E-01
31  3.0000000000000E-01  8.1185007798653E-01 -3.8515916190404E-01
32  3.1000000000000E-01  8.5165316839975E-01 -3.8582181003228E-01
33  3.2000000000000E-01  8.9110108389186E-01 -3.8471792167158E-01
34  3.3000000000000E-01  9.3009083175884E-01 -3.8189538085250E-01
35  3.4000000000000E-01  9.6852218761339E-01 -3.7741904903072E-01
36  3.5000000000000E-01  1.0062977686315E+00 -3.7136920245137E-01
37  3.6000000000000E-01  1.0433230759604E+00 -3.6383974770877E-01
38  3.7000000000000E-01  1.0795065095299E+00 -3.5493624223084E-01
39  3.8000000000000E-01  1.1147593589183E+00 -3.4477374939776E-01
40  3.9000000000000E-01  1.1489957742748E+00 -3.3347456058435E-01
41  4.0000000000000E-01  1.1821327215834E+00 -3.2116581855346E-01
42  4.1000000000000E-01  1.2140899267650E+00 -3.0797707828949E-01
43  4.2000000000000E-01  1.2447898132522E+00 -2.9403784251845E-01
44  4.3000000000000E-01  1.2741574377260E+00 -2.7947510978984E-01
45  4.4000000000000E-01  1.3021204286864E+00 -2.6441097308430E-01
46  4.5000000000000E-01  1.3286089324199E+00 -2.4896030644849E-01
47  4.6000000000000E-01  1.3535555707450E+00 -2.3322857614821E-01
48  4.7000000000000E-01  1.3768954146534E+00 -2.1730981127770E-01
49  4.8000000000000E-01  1.3985659776235E+00 -2.0128476668564E-01
50  4.9000000000000E-01  1.4185072319702E+00 -1.8521930849742E-01
51  5.0000000000000E-01  1.4366616511179E+00 -1.6916304946262E-01
52  5.1000000000000E-01  1.4529742801416E+00 -1.5314825787180E-01
53  5.2000000000000E-01  1.4673928363292E+00 -1.3718905991534E-01
54  5.3000000000000E-01  1.4798678408805E+00 -1.2128095114869E-01
55  5.4000000000000E-01  1.4903527821860E+00 -1.0540062824108E-01
56  5.5000000000000E-01  1.4988043104296E+00 -8.9506147480536E-02
57  5.6000000000000E-01  1.5051824625474E+00 -7.3537411652838E-02
58  5.7000000000000E-01  1.5094509158594E+00 -5.7416981975936E-02
59  5.8000000000000E-01  1.5115772679821E+00 -4.1051206825852E-02
60  5.9000000000000E-01  1.5115333399443E+00 -2.4331654108481E-02
61  6.0000000000000E-01  1.5092954987707E+00 -7.1368293880654E-03
62  6.1000000000000E-01  1.5048449951879E+00  1.0665842651058E-02
63  6.2000000000000E-01  1.4981683115465E+00  2.9217800085005E-02
64  6.3000000000000E-01  1.4892575145637E+00  4.8666919553111E-02
65  6.4000000000000E-01  1.4781106070691E+00  6.9164920054014E-02
66  6.5000000000000E-01  1.4647318726071E+00  9.0864631826919E-02
67  6.6000000000000E-01  1.4491322065017E+00  1.1391716990676E-01
68  6.7000000000000E-01  1.4313294268529E+00  1.3846905387098E-01
69  6.8000000000000E-01  1.4113485588886E+00  1.6465931661775E-01
70  6.9000000000000E-01  1.3892220861667E+00  1.9261664570395E-01
71  7.0000000000000E-01  1.3649901623026E+00  2.2245660080490E-01
72  7.1000000000000E-01  1.3387007771797E+00  2.5427895022845E-01
73  7.2000000000000E-01  1.3104098720062E+00  2.8816516812347E-01
74  7.3000000000000E-01  1.2801813980782E+00  3.2417613207876E-01
75  7.4000000000000E-01  1.2480873147195E+00  3.6235005823321E-01
76  7.5000000000000E-01  1.2142075225648E+00  4.0270070784546E-01
77  7.6000000000000E-01  1.1786297291418E+00  4.4521589554100E-01
78  7.7000000000000E-01  1.1414492445673E+00  4.8985632521991E-01
79  7.8000000000000E-01  1.1027687061017E+00  5.3655477492916E-01
80  7.9000000000000E-01  1.0626977312818E+00  5.8521564694886E-01
81  8.0000000000000E-01  1.0213525003713E+00  6.3571489398671E-01
82  8.1000000000000E-01  9.7885526990027E-01  6.8790032680509E-01
83  8.2000000000000E-01  9.3533382011446E-01  7.4159230290375E-01
84  8.3000000000000E-01  8.9092084018091E-01  7.9658479014399E-01
85  8.4000000000000E-01  8.4575325600360E-01  8.5264679351718E-01
86  8.5000000000000E-01  7.9997150645830E-01  9.0952412772912E-01
87  8.6000000000000E-01  7.5371877474994E-01  9.6694151298475E-01
88  8.7000000000000E-01  7.0714018241016E-01  1.0246049664064E+00
89  8.8000000000000E-01  6.6038195417035E-01  1.0822044569924E+00
90  8.9000000000000E-01  6.1359056255215E-01  1.1394167880033E+00
91  9.0000000000000E-01  5.6691186149961E-01  1.1959086672251E+00
92  9.1000000000000E-01  5.2049021872168E-01  1.2513399227717E+00
93  9.2000000000000E-01  4.7446765661095E-01  1.3053668200091E+00
94  9.3000000000000E-01  4.2898301164644E-01  1.3576454338577E+00
95  9.4000000000000E-01  3.8417112206745E-01  1.4078350301940E+00
96  9.5000000000000E-01  3.4016205332014E-01  1.4556014103426E+00
97  9.6000000000000E-01  2.9708037032589E-01  1.5006201737497E+00
98  9.7000000000000E-01  2.5504446500432E-01  1.5425798558237E+00
99  9.8000000000000E-01  2.1416594670631E-01  1.5811849006357E+00
100  9.9000000000000E-01  1.7454910228363E-01  1.6161584316154E+00
101  1.0000000000000E+00  1.3629043144983E-01  1.6472447875380E+00
102  1.0100000000000E+00  9.9478261887014E-02  1.6742117958923E+00
103  1.0200000000000E+00  6.4192447238922E-02  1.6968527610777E+00
104  1.0300000000000E+00  3.0504149725079E-02  1.7149881506947E+00
105  1.0400000000000E+00 -1.5242923709398E-03  1.7284669693837E+00
106  1.0500000000000E+00 -3.1839413614053E-02  1.7371678160941E+00
107  1.0600000000000E+00 -6.0396589556536E-02  1.7409996272061E+00
108  1.0700000000000E+00 -8.7159928476935E-02  1.7399021144626E+00
109  1.0800000000000E+00 -1.1210209260092E-01  1.7338459130171E+00
110  1.0900000000000E+00 -1.3520405613168E-01  1.7228324609558E+00
111  1.1000000000000E+00 -1.5645480876055E-01  1.7068936372166E+00
112  1.1100000000000E+00 -1.7585101453899E-01  1.6860911897620E+00
113  1.1200000000000E+00 -1.9339663703543E-01  1.6605159900016E+00
114  1.1300000000000E+00 -2.0910254253783E-01  1.6302871526323E+00
115  1.1400000000000E+00 -2.2298609366214E-01  1.5955510621088E+00
116  1.1500000000000E+00 -2.3507074604934E-01  1.5564803477163E+00
117  1.1600000000000E+00 -2.4538566084532E-01  1.5132728485108E+00
118  1.1700000000000E+00 -2.5396534532331E-01  1.4661506070875E+00
119  1.1800000000000E+00 -2.6084933328843E-01  1.4153589270457E+00
120  1.1900000000000E+00 -2.6608191576935E-01  1.3611655230130E+00
121  1.2000000000000E+00 -2.6971193091339E-01  1.3038597840122E+00
122  1.2100000000000E+00 -2.7179261991969E-01  1.2437521606178E+00
123  1.2200000000000E+00 -2.7238155325881E-01  1.1811736737235E+00
124  1.2300000000000E+00 -2.7154062825688E-01  1.1164755274735E+00
125  1.2400000000000E+00 -2.6933613539511E-01  1.0500287911323E+00
126  1.2500000000000E+00 -2.6583888630278E-01  9.8222409399648E-01
127  1.2600000000000E+00 -2.6112439138751E-01  9.1347125381441E-01
128  1.2700000000000E+00 -2.5527306935463E-01  8.4419873262628E-01
129  1.2800000000000E+00 -2.4837046440042E-01  7.7485278392709E-01
130  1.2900000000000E+00 -2.4050743965590E-01  7.0589612177138E-01
131  1.3000000000000E+00 -2.3178030747363E-01  6.3780590573139E-01
132  1.3100000000000E+00 -2.2229084826892E-01  5.7107079495312E-01
133  1.3200000000000E+00 -2.1214615990095E-01  5.0618678018191E-01
134  1.3300000000000E+00 -2.0145826892931E-01  4.4365145420771E-01