Er    ONCVPSP-4.0.1  r_core=   2.00187   1.60440   1.90833   1.40655
68.0000     22.0000      250626    zatom,zion,pspd
8      11   3     4   600     0    pspcod,pspxc,lmax,lloc,mmax,r2well
5.99000000 24.00000000  0.00000000    rchrg fchrg qchrg
2     2     2     2     0    nproj
1     1           extension_switch
0                         9.7951238397338E+00  3.3836820760216E-01
1  0.0000000000000E+00  5.7358673366537E-11 -2.4019488308047E-10
2  1.0000000000000E-02  5.0370538008000E-02 -1.0998955598644E-03
3  2.0000000000000E-02  1.0069347995365E-01 -2.2567610684034E-03
4  3.0000000000000E-02  1.5092112656756E-01 -3.5268080331519E-03
5  4.0000000000000E-02  2.0100557386273E-01 -4.9647382520783E-03
6  5.0000000000000E-02  2.5089861500250E-01 -6.6230068293662E-03
7  6.0000000000000E-02  3.0055164719962E-01 -8.5511064649317E-03
8  7.0000000000000E-02  3.4991558525613E-01 -1.0794879825368E-02
9  8.0000000000000E-02  3.9894078329570E-01 -1.3395866563811E-02
10  9.0000000000000E-02  4.4757696616992E-01 -1.6390691259284E-02
11  1.0000000000000E-01  4.9577317193534E-01 -1.9810498194886E-02
12  1.1000000000000E-01  5.4347770670195E-01 -2.3680438491135E-02
13  1.2000000000000E-01  5.9063811304575E-01 -2.8019214659484E-02
14  1.3000000000000E-01  6.3720115305844E-01 -3.2838687144068E-02
15  1.4000000000000E-01  6.8311280697859E-01 -3.8143546881989E-02
16  1.5000000000000E-01  7.2831828820986E-01 -4.3931057337050E-02
17  1.6000000000000E-01  7.7276207538554E-01 -5.0190868854591E-02
18  1.7000000000000E-01  8.1638796198509E-01 -5.6904907548142E-02
19  1.8000000000000E-01  8.5913912384896E-01 -6.4047340271679E-02
20  1.9000000000000E-01  9.0095820477382E-01 -7.1584616552975E-02
21  2.0000000000000E-01  9.4178742020250E-01 -7.9475587675960E-02
22  2.1000000000000E-01  9.8156867885351E-01 -8.7671702404064E-02
23  2.2000000000000E-01  1.0202437219637E+00 -9.6117278139668E-02
24  2.3000000000000E-01  1.0577542796478E+00 -1.0474984562244E-01
25  2.4000000000000E-01  1.0940422437092E+00 -1.1350056458761E-01
26  2.5000000000000E-01  1.1290498560720E+00 -1.2229470713894E-01
27  2.6000000000000E-01  1.1627199118407E+00 -1.3105220494688E-01
28  2.7000000000000E-01  1.1949959758416E+00 -1.3968825576511E-01
29  2.8000000000000E-01  1.2258226113477E+00 -1.4811398417414E-01
30  2.9000000000000E-01  1.2551456195513E+00 -1.5623715091396E-01
31  3.0000000000000E-01  1.2829122882148E+00 -1.6396290466424E-01
32  3.1000000000000E-01  1.3090716478123E+00 -1.7119456967391E-01
33  3.2000000000000E-01  1.3335747333616E+00 -1.7783446223904E-01
34  3.3000000000000E-01  1.3563748500541E+00 -1.8378472868009E-01
35  3.4000000000000E-01  1.3774278407028E+00 -1.8894819718238E-01
36  3.5000000000000E-01  1.3966923529628E+00 -1.9322923564013E-01
37  3.6000000000000E-01  1.4141301042248E+00 -1.9653460748781E-01
38  3.7000000000000E-01  1.4297061420420E+00 -1.9877431741374E-01
39  3.8000000000000E-01  1.4433890979332E+00 -1.9986243883502E-01
40  3.9000000000000E-01  1.4551514323970E+00 -1.9971791506766E-01
41  4.0000000000000E-01  1.4649696689870E+00 -1.9826532625620E-01
42  4.1000000000000E-01  1.4728246153262E+00 -1.9543561432922E-01
43  4.2000000000000E-01  1.4787015689884E+00 -1.9116675852529E-01
44  4.3000000000000E-01  1.4825905062367E+00 -1.8540439438346E-01
45  4.4000000000000E-01  1.4844862516946E+00 -1.7810236951482E-01
46  4.5000000000000E-01  1.4843886271223E+00 -1.6922322996266E-01
47  4.6000000000000E-01  1.4823025775883E+00 -1.5873863151873E-01
48  4.7000000000000E-01  1.4782382734578E+00 -1.4662967098522E-01
49  4.8000000000000E-01  1.4722111867680E+00 -1.3288713305602E-01
50  4.9000000000000E-01  1.4642421407211E+00 -1.1751164923028E-01
51  5.0000000000000E-01  1.4543573312045E+00 -1.0051376596109E-01
52  5.1000000000000E-01  1.4425883194333E+00 -8.1913920079494E-02
53  5.2000000000000E-01  1.4289719950136E+00 -6.1742320408716E-02
54  5.3000000000000E-01  1.4135505089334E+00 -4.0038735392757E-02
55  5.4000000000000E-01  1.3963711762084E+00 -1.6852187499157E-02
56  5.5000000000000E-01  1.3774863481371E+00  7.7594438916612E-03
57  5.6000000000000E-01  1.3569532543515E+00  3.3729908432101E-02
58  5.7000000000000E-01  1.3348338150876E+00  6.0985155944062E-02
59  5.8000000000000E-01  1.3111944243379E+00  8.9443988139081E-02
60  5.9000000000000E-01  1.2861057047892E+00  1.1901878536995E-01
61  6.0000000000000E-01  1.2596422356876E+00  1.4961630193716E-01
62  6.1000000000000E-01  1.2318822550068E+00  1.8113852258355E-01
63  6.2000000000000E-01  1.2029073375273E+00  2.1348357196392E-01
64  6.3000000000000E-01  1.1728020506588E+00  2.4654666807728E-01
65  6.4000000000000E-01  1.1416535900478E+00  2.8022110991618E-01
66  6.5000000000000E-01  1.1095513972215E+00  3.1439928891965E-01
67  6.6000000000000E-01  1.0765867617049E+00  3.4897371323069E-01
68  6.7000000000000E-01  1.0428524102249E+00  3.8383803325931E-01
69  6.8000000000000E-01  1.0084420857746E+00  4.1888805664928E-01
70  6.9000000000000E-01  9.7345011944931E-01  4.5402274044820E-01
71  7.0000000000000E-01  9.3797099808648E-01  4.8914514809457E-01
72  7.1000000000000E-01  9.0209893083902E-01  5.2416335876653E-01
73  7.2000000000000E-01  8.6592741788574E-01  5.5899131669626E-01
74  7.3000000000000E-01  8.2954882453158E-01  5.9354960824321E-01
75  7.4000000000000E-01  7.9305396397328E-01  6.2776615484456E-01
76  7.5000000000000E-01  7.5653169200176E-01  6.6157681042860E-01
77  7.6000000000000E-01  7.2006851687951E-01  6.9492585248682E-01
78  7.7000000000000E-01  6.8374822756945E-01  7.2776635675696E-01
79  7.8000000000000E-01  6.4765154339994E-01  7.6006044637365E-01
80  7.9000000000000E-01  6.1185578812876E-01  7.9177940739478E-01
81  8.0000000000000E-01  5.7643459121676E-01  8.2290366381012E-01
82  8.1000000000000E-01  5.4145761893929E-01  8.5342260648102E-01
83  8.2000000000000E-01  5.0699033775102E-01  8.8333427194241E-01
84  8.3000000000000E-01  4.7309381207784E-01  9.1264486861715E-01
85  8.4000000000000E-01  4.3982453843870E-01  9.4136814973958E-01
86  8.5000000000000E-01  4.0723431750173E-01  9.6952463415271E-01
87  8.6000000000000E-01  3.7537016535439E-01  9.9714067812361E-01
88  8.7000000000000E-01  3.4427426491754E-01  1.0242474033991E+00
89  8.8000000000000E-01  3.1398395806087E-01  1.0508794888918E+00
90  8.9000000000000E-01  2.8453177858374E-01  1.0770738356239E+00
91  9.0000000000000E-01  2.5594552581367E-01  1.1028681168506E+00
92  9.1000000000000E-01  2.2824837814744E-01  1.1282992276183E+00
93  9.2000000000000E-01  2.0145904541963E-01  1.1534016503608E+00
94  9.3000000000000E-01  1.7559195853416E-01  1.1782057554817E+00
95  9.4000000000000E-01  1.5065749433917E-01  1.2027360581886E+00
96  9.5000000000000E-01  1.2666223326898E-01  1.2270094551015E+00
97  9.6000000000000E-01  1.0360924682195E-01  1.2510334663384E+00
98  9.7000000000000E-01  8.1498411495620E-02  1.2748045108393E+00
99  9.8000000000000E-01  6.0326745364477E-02  1.2983062446087E+00
100  9.9000000000000E-01  4.0088763066120E-02  1.3215079932830E+00
101  1.0000000000000E+00  2.0776844564662E-02  1.3443633119452E+00
102  1.0100000000000E+00  2.3816126904506E-03  1.3668087063562E+00
103  1.0200000000000E+00 -1.5107685880524E-02  1.3887625507171E+00
104  1.0300000000000E+00 -3.1702801839662E-02  1.4101242376738E+00
105  1.0400000000000E+00 -4.7416112532950E-02  1.4307735964685E+00
106  1.0500000000000E+00 -6.2260265399287E-02  1.4505706148881E+00
107  1.0600000000000E+00 -7.6247841772117E-02  1.4693554998994E+00
108  1.0700000000000E+00 -8.9391047323038E-02  1.4869491105277E+00
109  1.0800000000000E+00 -1.0170143541668E-01  1.5031537945878E+00
110  1.0900000000000E+00 -1.1318966955218E-01  1.5177546582237E+00
111  1.1000000000000E+00 -1.2386533087954E-01  1.5305212938003E+00
112  1.1100000000000E+00 -1.3373677649035E-01  1.5412099874471E+00
113  1.1200000000000E+00 -1.4281105378138E-01  1.5495664223767E+00
114  1.1300000000000E+00 -1.5109387566855E-01  1.5553288879491E+00
115  1.1400000000000E+00 -1.5858966077363E-01  1.5582319971776E+00
116  1.1500000000000E+00 -1.6530164191244E-01  1.5580109069605E+00
117  1.1600000000000E+00 -1.7123204525999E-01  1.5544060255680E+00
118  1.1700000000000E+00 -1.7638234145595E-01  1.5471681808455E+00
119  1.1800000000000E+00 -1.8075356861639E-01  1.5360642099483E+00
120  1.1900000000000E+00 -1.8434672573431E-01  1.5208829172223E+00
121  1.2000000000000E+00 -1.8716323326063E-01  1.5014413308743E+00
122  1.2100000000000E+00 -1.8920545574237E-01  1.4775911711908E+00
123  1.2200000000000E+00 -1.9047727925708E-01  1.4492254232799E+00
124  1.2300000000000E+00 -1.9098473397235E-01  1.4162848851668E+00
125  1.2400000000000E+00 -1.9073664950376E-01  1.3787645378176E+00
126  1.2500000000000E+00 -1.8974532778560E-01  1.3367195567693E+00
127  1.2600000000000E+00 -1.8802721490295E-01  1.2902707554713E+00
128  1.2700000000000E+00 -1.8560354976181E-01  1.2396092181949E+00
129  1.2800000000000E+00 -1.8250096352530E-01  1.1849998448118E+00
130  1.2900000000000E+00 -1.7875199943973E-01  1.1267834910431E+00
131  1.3000000000000E+00 -1.7439551798887E-01  1.0653773457379E+00
132  1.3100000000000E+00 -1.6947694717822E-01  1.0012731406791E+00
133  1.3200000000000E+00 -1.6404833218866E-01  9.3503273859504E-01
134  1.3300000000000E+00 -1.5816813260199E-01  8.6728059101208E-01
135  1.3400000000000E+00 -1.5190070885662E-01  7.9869249902943E-01
136  1.3500000000000E+00 -1.4531543249433E-01  7.2998004661462E-01
137  1.3600000000000E+00 -1.3848534711143E-01  6.6187000763366E-01
138  1.3700000000000E+00 -1.3148529868100E-01  5.9507795409911E-01
139  1.3800000000000E+00 -1.2438944499897E-01  5.3027521343928E-01
140  1.3900000000000E+00 -1.1726804392707E-01  4.6804822996791E-01
141  1.4000000000000E+00 -1.1018343090075E-01  4.0884959944239E-01
142  1.4100000000000E+00 -1.0318492003680E-01  3.5293753604012E-01
143  1.4200000000000E+00 -9.6306095464409E-02  3.0035442449679E-01
144  1.4300000000000E+00 -8.9572504205129E-02  2.5105294678850E-01
145  1.4400000000000E+00 -8.3007108497241E-02  2.0497835116791E-01
146  1.4500000000000E+00 -7.6630302642518E-02  1.6206821339813E-01
147  1.4600000000000E+00 -7.0460028664462E-02  1.2225362739067E-01
148  1.4700000000000E+00 -6.4511849989330E-02  8.5459658847565E-02
149  1.4800000000000E+00 -5.8799032265629E-02  5.1605824962612E-02
150  1.4900000000000E+00 -5.3332630100792E-02  2.0606585693950E-02
151  1.5000000000000E+00 -4.8121578432934E-02 -7.6281654756812E-03
152  1.5100000000000E+00 -4.3172787884718E-02 -3.3192613922297E-02
153  1.5200000000000E+00 -3.8491243514734E-02 -5.6184541166728E-02
154  1.5300000000000E+00 -3.4080106370245E-02 -7.6704849047621E-02
155  1.5400000000000E+00 -2.9940817243488E-02 -9.4857092856208E-02
156  1.5500000000000E+00 -2.6073202113129E-02 -1.1074702464008E-01
157  1.5600000000000E+00 -2.2475579073186E-02 -1.2448214405998E-01
158  1.5700000000000E+00 -1.9144864739540E-02 -1.3617127657613E-01
159  1.5800000000000E+00 -1.6076682659376E-02 -1.4592414327980E-01
160  1.5900000000000E+00 -1.3265469822113E-02 -1.5385096565008E-01
161  1.6000000000000E+00 -1.0704583280581E-02 -1.6006207628657E-01
162  1.6100000000000E+00 -8.3864054404467E-03 -1.6466754914755E-01
163  1.6200000000000E+00 -6.3024479116036E-03 -1.6777684667817E-01
164  1.6300000000000E+00 -4.4434535647604E-03 -1.6949848452073E-01
165  1.6400000000000E+00 -2.7994964687755E-03 -1.6993971431376E-01
166  1.6500000000000E+00 -1.3600794452165E-03 -1.6920622459811E-01
167  1.6600000000000E+00 -1.1422899682298E-04 -1.6740185984065E-01
168  1.6700000000000E+00  9.4941262672143E-04 -1.6462835772571E-01
169  1.6800000000000E+00  1.8424983974761E-03 -1.6098510434652E-01
170  1.6900000000000E+00  2.5768906884670E-03 -1.5656890719339E-01
171  1.7000000000000E+00  3.1645787923349E-03 -1.5147378551846E-01
172  1.7100000000000E+00  3.6175999002478E-03 -1.4579077777026E-01
173  1.7200000000000E+00  3.9479636235840E-03 -1.3960776556834E-01
174  1.7300000000000E+00  4.1675801174699E-03 -1.3300931362406E-01
175  1.7400000000000E+00  4.2881918645059E-03 -1.2607652518921E-01
176  1.7500000000000E+00  4.3213091310938E-03 -1.1888691229016E-01
177  1.7600000000000E+00  4.2781490965652E-03 -1.1151428004323E-01
178  1.7700000000000E+00  4.1695786682983E-03 -1.0402862463883E-01
179  1.7800000000000E+00  4.0060608296467E-03 -9.6496042981298E-02
180  1.7900000000000E+00  3.7976050608504E-03 -8.8978659355805E-02
181  1.8000000000000E+00  3.5537202276217E-03 -8.1534552195659E-02
182  1.8100000000000E+00  3.2833715855338E-03 -7.4217698134180E-02
183  1.8200000000000E+00  2.9949430348052E-03 -6.7077945277849E-02
184  1.8300000000000E+00  2.6961982150119E-03 -6.0160948874238E-02
185  1.8400000000000E+00  2.3942491893456E-03 -5.3508161038238E-02
186  1.8500000000000E+00  2.0955260422140E-03 -4.7156805119444E-02
187  1.8600000000000E+00  1.8057500491829E-03 -4.1139862864431E-02
188  1.8700000000000E+00  1.5299117457851E-03 -3.5486083907594E-02
189  1.8800000000000E+00  1.2722325592067E-03 -3.0219845999822E-02
190  1.8900000000000E+00  1.0362009230111E-03 -2.5361593504058E-02
191  1.9000000000000E+00  8.2446619143869E-04 -2.0927147175827E-02
192  1.9100000000000E+00  6.3753319695564E-04 -1.6917170096131E-02
193  1.9200000000000E+00  4.7447775419589E-04 -1.3322908814262E-02
194  1.9300000000000E+00  3.3684240138348E-04 -1.0157948864081E-02
195  1.9400000000000E+00  2.2512045399267E-04 -7.4301484044600E-03
196  1.9500000000000E+00  1.3880044240043E-04 -5.1419911673381E-03
197  1.9600000000000E+00  7.6356748245024E-05 -3.2905103489679E-03
198  1.9700000000000E+00  3.5258785480371E-05 -1.8678073584916E-03
199  1.9800000000000E+00  1.1999559975642E-05 -8.5757151638347E-04
200  1.9900000000000E+00  2.0678576501335E-06 -2.4661722460227E-04
201  2.0000000000000E+00  1.5782105662667E-08 -1.3957759567607E-05
202  2.0100000000000E+00  7.3118062308618E-09  8.0117438351690E-06
203  2.0200000000000E+00  1.2442652651917E-08 -3.5877977992637E-06
204  2.03 -0.  0.
205  2.04 -0. -0.
206  2.05 -0. -0.
207  2.06  0.  0.
208  2.07  0.  0.
209  2.08  0.  0.
210  2.09  0.  0.
211  2.10  0.  0.
212  2.11  0.  0.
213  2.12  0.  0.
214  2.13  0.  0.
215  2.14  0.  0.
216  2.15  0.  0.
217  2.16  0.  0.
218  2.17  0.  0.
219  2.18  0.  0.
220  2.19  0.  0.
221  2.20  0.  0.
222  2.21  0.  0.
223  2.22  0.  0.
224  2.23  0.  0.
225  2.24  0.  0.
226  2.25  0.  0.
227  2.26  0.  0.
228  2.27  0.  0.
229  2.28  0.  0.
230  2.29  0.  0.
231  2.30  0.  0.
232  2.31  0.  0.
233  2.32  0.  0.
234  2.33  0.  0.
235  2.34  0.  0.
236  2.35  0.  0.
237  2.36  0.  0.
238  2.37  0.  0.
239  2.38  0.  0.
240  2.39  0.  0.
241  2.40  0.  0.
242  2.41  0.  0.
243  2.42  0.  0.
244  2.43  0.  0.
245  2.44  0.  0.
246  2.45  0.  0.
247  2.46  0.  0.
248  2.47  0.  0.
249  2.48  0.  0.
250  2.49  0.  0.
251  2.50  0.  0.
252  2.51  0.  0.
253  2.52  0.  0.
254  2.53  0.  0.
255  2.54  0.  0.
256  2.55  0.  0.
257  2.56  0.  0.
258  2.57  0.  0.
259  2.58  0.  0.
260  2.59  0.  0.
261  2.60  0.  0.
262  2.61  0.  0.
263  2.62  0.  0.
264  2.63  0.  0.
265  2.64  0.  0.
266  2.65  0.  0.
267  2.66  0.  0.
268  2.67  0.  0.
269  2.68  0.  0.
270  2.69  0.  0.
271  2.70  0.  0.
272  2.71  0.  0.
273  2.72  0.  0.
274  2.73  0.  0.
275  2.74  0.  0.
276  2.75  0.  0.
277  2.76  0.  0.
278  2.77  0.  0.
279  2.78  0.  0.
280  2.79  0.  0.
281  2.80  0.  0.
282  2.81  0.  0.
283  2.82  0.  0.
284  2.83  0.  0.
285  2.84  0.  0.
286  2.85  0.  0.
287  2.86  0.  0.
288  2.87  0.  0.
289  2.88  0.  0.
290  2.89  0.  0.
291  2.90  0.  0.
292  2.91  0.  0.
293  2.92  0.  0.
294  2.93  0.  0.
295  2.94  0.  0.
296  2.95  0.  0.
297  2.96  0.  0.
298  2.97  0.  0.
299  2.98  0.  0.
300  2.99  0.  0.
301  3.00  0.  0.
302  3.01  0.  0.
303  3.02  0.  0.
304  3.03  0.  0.
305  3.04  0.  0.
306  3.05  0.  0.
307  3.06  0.  0.
308  3.07  0.  0.
309  3.08  0.  0.
310  3.09  0.  0.
311  3.10  0.  0.
312  3.11  0.  0.
313  3.12  0.  0.
314  3.13  0.  0.
315  3.14  0.  0.
316  3.15  0.  0.
317  3.16  0.  0.
318  3.17  0.  0.
319  3.18  0.  0.
320  3.19  0.  0.
321  3.20  0.  0.
322  3.21  0.  0.
323  3.22  0.  0.
324  3.23  0.  0.
325  3.24  0.  0.
326  3.25  0.  0.
327  3.26  0.  0.
328  3.27  0.  0.
329  3.28  0.  0.
330  3.29  0.  0.
331  3.30  0.  0.
332  3.31  0.  0.
333  3.32  0.  0.
334  3.33  0.  0.
335  3.34  0.  0.
336  3.35  0.  0.
337  3.36  0.  0.
338  3.37  0.  0.
339  3.38  0.  0.
340  3.39  0.  0.
341  3.40  0.  0.
342  3.41  0.  0.
343  3.42  0.  0.
344  3.43  0.  0.
345  3.44  0.  0.
346  3.45  0.  0.
347  3.46  0.  0.
348  3.47  0.  0.
349  3.48  0.  0.
350  3.49  0.  0.
351  3.50  0.  0.
352  3.51  0.  0.
353  3.52  0.  0.
354  3.53  0.  0.
355  3.54  0.  0.
356  3.55  0.  0.
357  3.56  0.  0.
358  3.57  0.  0.
359  3.58  0.  0.
360  3.59  0.  0.
361  3.60  0.  0.
362  3.61  0.  0.
363  3.62  0.  0.
364  3.63  0.  0.
365  3.64  0.  0.
366  3.65  0.  0.
367  3.66  0.  0.
368  3.67  0.  0.
369  3.68  0.  0.
370  3.69  0.  0.
371  3.70  0.  0.
372  3.71  0.  0.
373  3.72  0.  0.
374  3.73  0.  0.
375  3.74  0.  0.
376  3.75  0.  0.
377  3.76  0.  0.
378  3.77  0.  0.
379  3.78  0.  0.
380  3.79  0.  0.
381  3.80  0.  0.
382  3.81  0.  0.
383  3.82  0.  0.
384  3.83  0.  0.
385  3.84  0.  0.
386  3.85  0.  0.
387  3.86  0.  0.
388  3.87  0.  0.
389  3.88  0.  0.
390  3.89  0.  0.
391  3.90  0.  0.
392  3.91  0.  0.
393  3.92  0.  0.
394  3.93  0.  0.
395  3.94  0.  0.
396  3.95  0.  0.
397  3.96  0.  0.
398  3.97  0.  0.
399  3.98  0.  0.
400  3.99  0.  0.
401  4.00  0.  0.
402  4.01  0.  0.
403  4.02  0.  0.
404  4.03  0.  0.
405  4.04  0.  0.
406  4.05  0.  0.
407  4.06  0.  0.
408  4.07  0.  0.
409  4.08  0.  0.
410  4.09  0.  0.
411  4.10  0.  0.
412  4.11  0.  0.
413  4.12  0.  0.
414  4.13  0.  0.
415  4.14  0.  0.
416  4.15  0.  0.
417  4.16  0.  0.
418  4.17  0.  0.
419  4.18  0.  0.
420  4.19  0.  0.
421  4.20  0.  0.
422  4.21  0.  0.
423  4.22  0.  0.
424  4.23  0.  0.
425  4.24  0.  0.
426  4.25  0.  0.
427  4.26  0.  0.
428  4.27  0.  0.
429  4.28  0.  0.
430  4.29  0.  0.
431  4.30  0.  0.
432  4.31  0.  0.
433  4.32  0.  0.
434  4.33  0.  0.
435  4.34  0.  0.
436  4.35  0.  0.
437  4.36  0.  0.
438  4.37  0.  0.
439  4.38  0.  0.
440  4.39  0.  0.
441  4.40  0.  0.
442  4.41  0.  0.
443  4.42  0.  0.
444  4.43  0.  0.
445  4.44  0.  0.
446  4.45  0.  0.
447  4.46  0.  0.
448  4.47  0.  0.
449  4.48  0.  0.
450  4.49  0.  0.
451  4.50  0.  0.
452  4.51  0.  0.
453  4.52  0.  0.
454  4.53  0.  0.
455  4.54  0.  0.
456  4.55  0.  0.
457  4.56  0.  0.
458  4.57  0.  0.
459  4.58  0.  0.
460  4.59  0.  0.
461  4.60  0.  0.
462  4.61  0.  0.
463  4.62  0.  0.
464  4.63  0.  0.
465  4.64  0.  0.
466  4.65  0.  0.
467  4.66  0.  0.
468  4.67  0.  0.
469  4.68  0.  0.
470  4.69  0.  0.
471  4.70  0.  0.
472  4.71  0.  0.
473  4.72  0.  0.
474  4.73  0.  0.
475  4.74  0.  0.
476  4.75  0.  0.
477  4.76  0.  0.
478  4.77  0.  0.
479  4.78  0.  0.
480  4.79  0.  0.
481  4.80  0.  0.
482  4.81  0.  0.
483  4.82  0.  0.
484  4.83  0.  0.
485  4.84  0.  0.
486  4.85  0.  0.
487  4.86  0.  0.
488  4.87  0.  0.
489  4.88  0.  0.
490  4.89  0.  0.
491  4.90  0.  0.
492  4.91  0.  0.
493  4.92  0.  0.
494  4.93  0.  0.
495  4.94  0.  0.
496  4.95  0.  0.
497  4.96  0.  0.
498  4.97  0.  0.
499  4.98  0.  0.
500  4.99  0.  0.
501  5.00  0.  0.
502  5.01  0.  0.
503  5.02  0.  0.
504  5.03  0.  0.
505  5.04  0.  0.
506  5.05  0.  0.
507  5.06  0.  0.
508  5.07  0.  0.
509  5.08  0.  0.
510  5.09  0.  0.
511  5.10  0.  0.
512  5.11  0.  0.
513  5.12  0.  0.
514  5.13  0.  0.
515  5.14  0.  0.
516  5.15  0.  0.
517  5.16  0.  0.
518  5.17  0.  0.
519  5.18  0.  0.
520  5.19  0.  0.
521  5.20  0.  0.
522  5.21  0.  0.
523  5.22  0.  0.
524  5.23  0.  0.
525  5.24  0.  0.
526  5.25  0.  0.
527  5.26  0.  0.
528  5.27  0.  0.
529  5.28  0.  0.
530  5.29  0.  0.
531  5.30  0.  0.
532  5.31  0.  0.
533  5.32  0.  0.
534  5.33  0.  0.
535  5.34  0.  0.
536  5.35  0.  0.
537  5.36  0.  0.
538  5.37  0.  0.
539  5.38  0.  0.
540  5.39  0.  0.
541  5.40  0.  0.
542  5.41  0.  0.
543  5.42  0.  0.
544  5.43  0.  0.
545  5.44  0.  0.
546  5.45  0.  0.
547  5.46  0.  0.
548  5.47  0.  0.
549  5.48  0.  0.
550  5.49  0.  0.
551  5.50  0.  0.
552  5.51  0.  0.
553  5.52  0.  0.
554  5.53  0.  0.
555  5.54  0.  0.
556  5.55  0.  0.
557  5.56  0.  0.
558  5.57  0.  0.
559  5.58  0.  0.
560  5.59  0.  0.
561  5.60  0.  0.
562  5.61  0.  0.
563  5.62  0.  0.
564  5.63  0.  0.
565  5.64  0.  0.
566  5.65  0.  0.
567  5.66  0.  0.
568  5.67  0.  0.
569  5.68  0.  0.
570  5.69  0.  0.
571  5.70  0.  0.
572  5.71  0.  0.
573  5.72  0.  0.
574  5.73  0.  0.
575  5.74  0.  0.
576  5.75  0.  0.
577  5.76  0.  0.
578  5.77  0.  0.
579  5.78  0.  0.
580  5.79  0.  0.
581  5.80  0.  0.
582  5.81  0.  0.
583  5.82  0.  0.
584  5.83  0.  0.
585  5.84  0.  0.
586  5.85  0.  0.
587  5.86  0.  0.
588  5.87  0.  0.
589  5.88  0.  0.
590  5.89  0.  0.
591  5.90  0.  0.
592  5.91  0.  0.
593  5.92  0.  0.
594  5.93  0.  0.
595  5.94  0.  0.
596  5.95  0.  0.
597  5.96  0.  0.
598  5.97  0.  0.
599  5.98  0.  0.
600  5.99  0.  0.
1                         7.3794508895617E+00  2.1808057380120E-01
1  0.0000000000000E+00 -2.3878246602216E-10  3.4599440118521E-09
2  1.0000000000000E-02  1.2559589064152E-03  1.0818739288415E-03
3  2.0000000000000E-02  5.0202546303936E-03  4.3149815853123E-03
4  3.0000000000000E-02  1.1282146520605E-02  9.6619281553544E-03
5  4.0000000000000E-02  2.0023741414101E-02  1.7060878909106E-02
6  5.0000000000000E-02  3.1220006011145E-02  2.6426287308775E-02
7  6.0000000000000E-02  4.4838785171886E-02  3.7649900800830E-02
8  7.0000000000000E-02  6.0840827083864E-02  5.0602030976774E-02
9  8.0000000000000E-02  7.9179816488138E-02  6.5133071326845E-02
10  9.0000000000000E-02  9.9802417367101E-02  8.1075242600167E-02
11  1.0000000000000E-01  1.2264832668434E-01  9.8244542872466E-02
12  1.1000000000000E-01  1.4765034092243E-01  1.1644287684859E-01
13  1.2000000000000E-01  1.7473443728444E-01  1.3546033673164E-01
14  1.3000000000000E-01  2.0381987150711E-01  1.5507760520112E-01
15  1.4000000000000E-01  2.3481929427474E-01  1.7506844968583E-01
16  1.5000000000000E-01  2.6763888822262E-01  1.9520227621049E-01
17  1.6000000000000E-01  3.0217852747537E-01  2.1524671064657E-01
18  1.7000000000000E-01  3.3833196157902E-01  2.3497017521284E-01
19  1.8000000000000E-01  3.7598702555716E-01  2.5414442854438E-01
20  1.9000000000000E-01  4.1502587765118E-01  2.7254703856736E-01
21  2.0000000000000E-01  4.5532526609546E-01  2.8996375876515E-01
22  2.1000000000000E-01  4.9675682603250E-01  3.0619078017031E-01
23  2.2000000000000E-01  5.3918740739347E-01  3.2103683353867E-01
24  2.3000000000000E-01  5.8247943426046E-01  3.3432511861715E-01
25  2.4000000000000E-01  6.2649129589235E-01  3.4589504016394E-01
26  2.5000000000000E-01  6.7107776924047E-01  3.5560373337395E-01
27  2.6000000000000E-01  7.1609047240944E-01  3.6332736455183E-01
28  2.7000000000000E-01  7.6137834813667E-01  3.6896219620886E-01
29  2.8000000000000E-01  8.0678817597766E-01  3.7242540918436E-01
30  2.9000000000000E-01  8.5216511149814E-01  3.7365567785214E-01
31  3.0000000000000E-01  8.9735325039478E-01  3.7261349791228E-01
32  3.1000000000000E-01  9.4219621509781E-01  3.6928126963839E-01
33  3.2000000000000E-01  9.8653776105878E-01  3.6366314269386E-01
34  3.3000000000000E-01  1.0302223995979E+00  3.5578463170319E-01
35  3.4000000000000E-01  1.0730960338843E+00  3.4569201461943E-01
36  3.5000000000000E-01  1.1150066043527E+00  3.3345152852551E-01
37  3.6000000000000E-01  1.1558047396259E+00  3.1914837981020E-01
38  3.7000000000000E-01  1.1953444088168E+00  3.0288558763953E-01
39  3.8000000000000E-01  1.2334835709306E+00  2.8478268127598E-01
40  3.9000000000000E-01  1.2700848169773E+00  2.6497427306431E-01
41  4.0000000000000E-01  1.3050160003422E+00  2.4360852979303E-01
42  4.1000000000000E-01  1.3381508509438E+00  2.2084556564831E-01
43  4.2000000000000E-01  1.3693695687380E+00  1.9685578010854E-01
44  4.3000000000000E-01  1.3985593922061E+00  1.7181816388546E-01
45  4.4000000000000E-01  1.4256151375828E+00  1.4591859542276E-01
46  4.5000000000000E-01  1.4504397047501E+00  1.1934814953217E-01
47  4.6000000000000E-01  1.4729445459298E+00  9.2301438507771E-02
48  4.7000000000000E-01  1.4930500935542E+00  6.4975004541502E-02
49  4.8000000000000E-01  1.5106861439803E+00  3.7565780504756E-02
50  4.9000000000000E-01  1.5257921940277E+00  1.0269634195895E-02
51  5.0000000000000E-01  1.5383177276678E+00 -1.6719990971483E-02
52  5.1000000000000E-01  1.5482224505579E+00 -4.3213328112233E-02
53  5.2000000000000E-01  1.5554764705093E+00 -6.9025423438576E-02
54  5.3000000000000E-01  1.5600604223783E+00 -9.3977151202175E-02
55  5.4000000000000E-01  1.5619655362913E+00 -1.1789610329961E-01
56  5.5000000000000E-01  1.5611936485335E+00 -1.4061735211930E-01
57  5.6000000000000E-01  1.5577571548602E+00 -1.6198408740519E-01
58  5.7000000000000E-01  1.5516789064092E+00 -1.8184812997935E-01
59  5.8000000000000E-01  1.5429920488137E+00 -2.0007032707064E-01
60  5.9000000000000E-01  1.5317398055164E+00 -2.1652083571303E-01
61  6.0000000000000E-01  1.5179752066833E+00 -2.3107930217977E-01
62  6.1000000000000E-01  1.5017607654891E+00 -2.4363494669014E-01
63  6.2000000000000E-01  1.4831681039029E+00 -2.5408656365263E-01
64  6.3000000000000E-01  1.4622775304381E+00 -2.6234244848348E-01
65  6.4000000000000E-01  1.4391775726411E+00 -2.6832026255990E-01
66  6.5000000000000E-01  1.4139644673780E+00 -2.7194684814052E-01
67  6.6000000000000E-01  1.3867416122384E+00 -2.7315800511359E-01
68  6.7000000000000E-01  1.3576189816073E+00 -2.7189824123846E-01
69  6.8000000000000E-01  1.3267125111596E+00 -2.6812050713744E-01
70  6.9000000000000E-01  1.2941434547097E+00 -2.6178592670083E-01
71  7.0000000000000E-01  1.2600377174977E+00 -2.5286353281089E-01
72  7.1000000000000E-01  1.2245251701178E+00 -2.4133001739645E-01
73  7.2000000000000E-01  1.1877389473898E+00 -2.2716950383090E-01
74  7.3000000000000E-01  1.1498147365495E+00 -2.1037334860871E-01
75  7.4000000000000E-01  1.1108900591790E+00 -1.9093997811353E-01
76  7.5000000000000E-01  1.0711035513246E+00 -1.6887476514693E-01
77  7.6000000000000E-01  1.0305942462507E+00 -1.4418994875652E-01
78  7.7000000000000E-01  9.8950086425989E-01 -1.1690459980223E-01
79  7.8000000000000E-01  9.4796111396986E-01 -8.7044633657115E-02
80  7.9000000000000E-01  9.0611100937507E-01 -5.4642870470192E-02
81  8.0000000000000E-01  8.6408420694315E-01 -1.9739142536196E-02
82  8.1000000000000E-01  8.2201136689361E-01  1.7619552467647E-02
83  8.2000000000000E-01  7.8001954268589E-01  5.7378854305096E-02
84  8.3000000000000E-01  7.3823160260251E-01  9.9476801576887E-02
85  8.4000000000000E-01  6.9676568714917E-01  1.4384355469980E-01
86  8.5000000000000E-01  6.5573470580867E-01  1.9040108389119E-01
87  8.6000000000000E-01  6.1524587647581E-01  2.3906282593497E-01
88  8.7000000000000E-01  5.7540031066678E-01  2.8973331381051E-01
89  8.8000000000000E-01  5.3629264733581E-01  3.4230778355641E-01
90  8.9000000000000E-01  4.9801073784397E-01  3.9667176303717E-01
91  9.0000000000000E-01  4.6063538430761E-01  4.5270064761632E-01
92  9.1000000000000E-01  4.2424013320604E-01  5.1025926814329E-01
93  9.2000000000000E-01  3.8889112574868E-01  5.6920145716360E-01
94  9.3000000000000E-01  3.5464700609010E-01  6.2936961989146E-01
95  9.4000000000000E-01  3.2155888803612E-01  6.9059431727047E-01
96  9.5000000000000E-01  2.8967038040704E-01  7.5269386940890E-01
97  9.6000000000000E-01  2.5901767071345E-01  8.1547398883565E-01
98  9.7000000000000E-01  2.2962966625927E-01  8.7872745438643E-01
99  9.8000000000000E-01  2.0152819121664E-01  9.4223383810386E-01
100  9.9000000000000E-01  1.7472823762087E-01  1.0057592993160E+00
101  1.0000000000000E+00  1.4923826761539E-01  1.0690564620226E+00
102  1.0100000000000E+00  1.2506056364019E-01  1.1318643938497E+00
103  1.0200000000000E+00  1.0219162260964E-01  1.1939087070846E+00
104  1.0300000000000E+00  8.0622589472914E-02  1.2549018046209E+00
105  1.0400000000000E+00  6.0339724900829E-02  1.3145432959711E+00
106  1.0500000000000E+00  4.1324901205708E-02  1.3725206107471E+00
107  1.0600000000000E+00  2.3556119987580E-02  1.4285098390801E+00
108  1.0700000000000E+00  7.0080444194514E-03  1.4821768302394E+00
109  1.0800000000000E+00 -8.3474614471226E-03  1.5331785820803E+00
110  1.0900000000000E+00 -2.2540794446913E-02  1.5811649547713E+00
111  1.1000000000000E+00 -3.5604083622045E-02  1.6257807423585E+00
112  1.1100000000000E+00 -4.7570679888023E-02  1.6666681349460E+00
113  1.1200000000000E+00 -5.8474673027166E-02  1.7034696024165E+00
114  1.1300000000000E+00 -6.8350445058402E-02  1.7358312275036E+00
115  1.1400000000000E+00 -7.7232268950782E-02  1.7634065113872E+00
116  1.1500000000000E+00 -8.5153961402129E-02  1.7858606686823E+00
117  1.1600000000000E+00 -9.2148597966796E-02  1.8028754203487E+00
118  1.1700000000000E+00 -9.8248298173758E-02  1.8141542825783E+00
119  1.1800000000000E+00 -1.0348408739602E-01  1.8194283366698E+00
120  1.1900000000000E+00 -1.0788584110037E-01  1.8184624491624E+00
121  1.2000000000000E+00 -1.1148231569201E-01  1.8110618926734E+00
122  1.2100000000000E+00 -1.1430126844445E-01  1.7970792956545E+00
123  1.2200000000000E+00 -1.1636966696148E-01  1.7764218235353E+00
124  1.2300000000000E+00 -1.1771398619374E-01  1.7490584637161E+00
125  1.2400000000000E+00 -1.1836058824598E-01  1.7150272528288E+00
126  1.2500000000000E+00 -1.1833617699118E-01  1.6744422457592E+00
127  1.2600000000000E+00 -1.1766831583962E-01  1.6274999819224E+00
128  1.2700000000000E+00 -1.1638599289024E-01  1.5744851551620E+00
129  1.2800000000000E+00 -1.1452021302668E-01  1.5157751383103E+00
130  1.2900000000000E+00 -1.1210459132843E-01  1.4518429521022E+00
131  1.3000000000000E+00 -1.0917591641500E-01  1.3832582003779E+00
132  1.3100000000000E+00 -1.0577464593261E-01  1.3106854182220E+00
133  1.3200000000000E+00 -1.0194528935626E-01  1.2348791971868E+00
134  1.3300000000000E+00 -9.7736625550088E-02  1.1566753612769E+00