Si    ONCVPSP-4.0.1  r_core=   1.60630   1.71555   1.91059
14.0000      4.0000      241226    zatom,zion,pspd
8      11   2     4   600     0    pspcod,pspxc,lmax,lloc,mmax,r2well
5.99000000  4.00000000  0.00000000    rchrg fchrg qchrg
2     2     2     0     0    nproj
1     1           extension_switch
0                        -7.1167487448451E+00  2.0690195041502E+00
1  0.0000000000000E+00 -1.2120011994021E-08  5.6508493613550E-09
2  1.0000000000000E-02  7.6375380654986E-02 -5.5835896394730E-03
3  2.0000000000000E-02  1.5234899517542E-01 -1.0984815300927E-02
4  3.0000000000000E-02  2.2752570160745E-01 -1.6024541493613E-02
5  4.0000000000000E-02  3.0152346233698E-01 -2.0530021152896E-02
6  5.0000000000000E-02  3.7397953941049E-01 -2.4337919975052E-02
7  6.0000000000000E-02  4.4455627053981E-01 -2.7297141045586E-02
8  7.0000000000000E-02  5.1294630064567E-01 -2.9271390007926E-02
9  8.0000000000000E-02  5.7887715591500E-01 -3.0141426670188E-02
10  9.0000000000000E-02  6.4211506198593E-01 -2.9806955777203E-02
11  1.0000000000000E-01  7.0246792470867E-01 -2.8188117534498E-02
12  1.1000000000000E-01  7.5978741058670E-01 -2.5226547189515E-02
13  1.2000000000000E-01  8.1397008406840E-01 -2.0885982363234E-02
14  1.3000000000000E-01  8.6495757988865E-01 -1.5152406678148E-02
15  1.4000000000000E-01  9.1273581018743E-01 -8.0337283317367E-03
16  1.5000000000000E-01  9.5733322767993E-01  4.4099760204732E-04
17  1.6000000000000E-01  9.9881818724112E-01  1.0222784417945E-02
18  1.7000000000000E-01  1.0372954684284E+00  2.1244338310586E-02
19  1.8000000000000E-01  1.0729020402497E+00  3.3422055011397E-02
20  1.9000000000000E-01  1.1058021664711E+00  4.6658343241649E-02
21  2.0000000000000E-01  1.1361819645711E+00  6.0844222570716E-02
22  2.1000000000000E-01  1.1642435437476E+00  7.5862137291000E-02
23  2.2000000000000E-01  1.1901988569039E+00  9.1588923218599E-02
24  2.3000000000000E-01  1.2142634080518E+00  1.0789886100503E-01
25  2.4000000000000E-01  1.2366499599304E+00  1.2466674767409E-01
26  2.5000000000000E-01  1.2575623867708E+00  1.4177091772126E-01
27  2.6000000000000E-01  1.2771898140184E+00  1.5909614624098E-01
28  2.7000000000000E-01  1.2957011805329E+00  1.7653636915596E-01
29  2.8000000000000E-01  1.3132403494412E+00  1.9399715965824E-01
30  2.9000000000000E-01  1.3299218816324E+00  2.1139790534652E-01
31  3.0000000000000E-01  1.3458275711073E+00  2.2867363714345E-01
32  3.1000000000000E-01  1.3610038243647E+00  2.4577646875754E-01
33  3.2000000000000E-01  1.3754599470829E+00  2.6267661405080E-01
34  3.3000000000000E-01  1.3891673809563E+00  2.7936295899909E-01
35  3.4000000000000E-01  1.4020599121273E+00  2.9584317478509E-01
36  3.5000000000000E-01  1.4140348506804E+00  3.1214336872912E-01
37  3.6000000000000E-01  1.4249551586224E+00  3.2830728002001E-01
38  3.7000000000000E-01  1.4346524821599E+00  3.4439503733274E-01
39  3.8000000000000E-01  1.4429310233725E+00  3.6048150519063E-01
40  3.9000000000000E-01  1.4495721670362E+00  3.7665425513291E-01
41  4.0000000000000E-01  1.4543397608110E+00  3.9301120618317E-01
42  4.1000000000000E-01  1.4569859316626E+00  4.0965798659234E-01
43  4.2000000000000E-01  1.4572573085944E+00  4.2670507518872E-01
44  4.3000000000000E-01  1.4549015118087E+00  4.4426478576448E-01
45  4.4000000000000E-01  1.4496737615355E+00  4.6244816164891E-01
46  4.5000000000000E-01  1.4413434561272E+00  4.8136184987995E-01
47  4.6000000000000E-01  1.4297005687064E+00  5.0110502513320E-01
48  4.7000000000000E-01  1.4145617147031E+00  5.2176643278228E-01
49  4.8000000000000E-01  1.3957757489684E+00  5.4342161815861E-01
50  4.9000000000000E-01  1.3732287606815E+00  5.6613040529889E-01
51  5.0000000000000E-01  1.3468483467783E+00  5.8993468329283E-01
52  5.1000000000000E-01  1.3166070598649E+00  6.1485655188059E-01
53  5.2000000000000E-01  1.2825249442103E+00  6.4089687033613E-01
54  5.3000000000000E-01  1.2446710930667E+00  6.6803424507109E-01
55  5.4000000000000E-01  1.2031641818146E+00  6.9622448198824E-01
56  5.5000000000000E-01  1.1581719538203E+00  7.2540051960576E-01
57  5.6000000000000E-01  1.1099096589315E+00  7.5547284857929E-01
58  5.7000000000000E-01  1.0586374677210E+00  7.8633041269222E-01
59  5.8000000000000E-01  1.0046569074120E+00  8.1784197589478E-01
60  5.9000000000000E-01  9.4830638736985E-01  8.4985792977700E-01
61  6.0000000000000E-01  8.8995590264745E-01  8.8221250618177E-01
62  6.1000000000000E-01  8.3000102285161E-01  9.1472635071318E-01
63  6.2000000000000E-01  7.6885629014529E-01  9.4720940486882E-01
64  6.3000000000000E-01  7.0694816412839E-01  9.7946403760002E-01
65  6.4000000000000E-01  6.4470766233433E-01  1.0112883614340E+00
66  6.5000000000000E-01  5.8256285287929E-01  1.0424796640042E+00
67  6.6000000000000E-01  5.2093136021476E-01  1.0728378830273E+00
68  6.7000000000000E-01  4.6021304584743E-01  1.1021690515024E+00
69  6.8000000000000E-01  4.0078302325907E-01  1.1302886402247E+00
70  6.9000000000000E-01  3.4298516012054E-01  1.1570247265961E+00
71  7.0000000000000E-01  2.8712621135973E-01  1.1822209221510E+00
72  7.1000000000000E-01  2.3347071390011E-01  1.2057389961208E+00
73  7.2000000000000E-01  1.8223675819272E-01  1.2274611386390E+00
74  7.3000000000000E-01  1.3359273334311E-01  1.2472918147061E+00
75  7.4000000000000E-01  8.7655122068798E-02  1.2651591686392E+00
76  7.5000000000000E-01  4.4487399345781E-02  1.2810159482303E+00
77  7.6000000000000E-01  4.1000648900450E-03  1.2948399280439E+00
78  7.7000000000000E-01 -3.3548184921027E-02  1.3066338219686E+00
79  7.8000000000000E-01 -6.8548164922966E-02  1.3164246860740E+00
80  7.9000000000000E-01 -1.0103683267216E-01  1.3242628237859E+00
81  8.0000000000000E-01 -1.3119291125373E-01  1.3302202161268E+00
82  8.1000000000000E-01 -1.5923159358669E-01  1.3343885100655E+00
83  8.2000000000000E-01 -1.8539843916007E-01  1.3368766076317E+00
84  8.3000000000000E-01 -2.0996259261340E-01  1.3378079071910E+00
85  8.4000000000000E-01 -2.3320946938202E-01  1.3373172559352E+00
86  8.5000000000000E-01 -2.5543306640089E-01  1.3355476790663E+00
87  8.6000000000000E-01 -2.7692806530299E-01  1.3326469561833E+00
88  8.7000000000000E-01 -2.9798190143136E-01  1.3287641189237E+00
89  8.8000000000000E-01 -3.1886697415668E-01  1.3240459458643E+00
90  8.9000000000000E-01 -3.3983317237962E-01  1.3186335310196E+00
91  9.0000000000000E-01 -3.6110088370928E-01  1.3126590009641E+00
92  9.1000000000000E-01 -3.8285464673275E-01  1.3062424526759E+00
93  9.2000000000000E-01 -4.0523759319678E-01  1.2994891797068E+00
94  9.3000000000000E-01 -4.2834681105407E-01  1.2924872483258E+00
95  9.4000000000000E-01 -4.5222974050777E-01  1.2853054779667E+00
96  9.5000000000000E-01 -4.7688169378941E-01  1.2779918718064E+00
97  9.6000000000000E-01 -5.0224456588201E-01  1.2705725337721E+00
98  9.7000000000000E-01 -5.2820677823069E-01  1.2630510979282E+00
99  9.8000000000000E-01 -5.5460447119818E-01  1.2554086852483E+00
100  9.9000000000000E-01 -5.8122393418459E-01  1.2476043914650E+00
101  1.0000000000000E+00 -6.0780523548834E-01  1.2395762982439E+00
102  1.0100000000000E+00 -6.3404698773769E-01  1.2312429886070E+00
103  1.0200000000000E+00 -6.5961215962606E-01  1.2225055365649E+00
104  1.0300000000000E+00 -6.8413482126581E-01  1.2132499305476E+00
105  1.0400000000000E+00 -7.0722768926933E-01  1.2033498806698E+00
106  1.0500000000000E+00 -7.2849031914165E-01  1.1926699513528E+00
107  1.0600000000000E+00 -7.4751777710485E-01  1.1810689535022E+00
108  1.0700000000000E+00 -7.6390961146998E-01  1.1684035245103E+00
109  1.0800000000000E+00 -7.7727893537276E-01  1.1545318199188E+00
110  1.0900000000000E+00 -7.8726142830867E-01  1.1393172377453E+00
111  1.1000000000000E+00 -7.9352406356388E-01  1.1226320953246E+00
112  1.1100000000000E+00 -7.9577337238056E-01  1.1043611790606E+00
113  1.1200000000000E+00 -7.9376306344995E-01  1.0844050897269E+00
114  1.1300000000000E+00 -7.8730082799105E-01  1.0626833098530E+00
115  1.1400000000000E+00 -7.7625417598834E-01  1.0391369252092E+00
116  1.1500000000000E+00 -7.6055516787662E-01  1.0137309393510E+00
117  1.1600000000000E+00 -7.4020392764642E-01  9.8645612844637E-01
118  1.1700000000000E+00 -7.1527084765454E-01  9.5733039305017E-01
119  1.1800000000000E+00 -6.8589742171113E-01  9.2639957384529E-01
120  1.1900000000000E+00 -6.5229567100442E-01  8.9373770953878E-01
121  1.2000000000000E+00 -6.1474615613249E-01  8.5944672667539E-01
122  1.2100000000000E+00 -5.7359459788664E-01  8.2365556309343E-01
123  1.2200000000000E+00 -5.2924715825893E-01  7.8651873859802E-01
124  1.2300000000000E+00 -4.8216446134524E-01  7.4821439812787E-01
125  1.2400000000000E+00 -4.3285446049416E-01  7.0894186387485E-01
126  1.2500000000000E+00 -3.8186428262912E-01  6.6891874323205E-01
127  1.2600000000000E+00 -3.2977120291629E-01  6.2837764900095E-01
128  1.2700000000000E+00 -2.7717292198246E-01  5.8756259660296E-01
129  1.2800000000000E+00 -2.2467733358805E-01  5.4672515006287E-01
130  1.2900000000000E+00 -1.7289198260969E-01  5.0612039407943E-01
131  1.3000000000000E+00 -1.2241342101496E-01  4.6600281340358E-01
132  1.3100000000000E+00 -7.3816673181661E-02  4.2662216298405E-01
133  1.3200000000000E+00 -2.7645021226610E-02  3.8821941282537E-01
134  1.3300000000000E+00  1.5599684029386E-02  3.5102285021557E-01
135  1.3400000000000E+00  5.5465990064427E-02  3.1524441898094E-01
136  1.3500000000000E+00  9.1560904615793E-02  2.8107637071844E-01
137  1.3600000000000E+00  1.2355688675849E-01  2.4868829667935E-01
138  1.3700000000000E+00  1.5119762196069E-01  2.1822460123026E-01
139  1.3800000000000E+00  1.7430245964164E-01  1.8980246881685E-01
140  1.3900000000000E+00  1.9276941820797E-01  1.6351036617555E-01
141  1.4000000000000E+00  2.0657669092185E-01  1.3940711051507E-01
142  1.4100000000000E+00  2.1578261587136E-01  1.1752152268193E-01
143  1.4200000000000E+00  2.2052410416192E-01  9.7852672174168E-02
144  1.4300000000000E+00  2.2101355138525E-01  8.0370708615473E-02
145  1.4400000000000E+00  2.1753428827401E-01  6.5018262020865E-02
146  1.4500000000000E+00  2.1043465597317E-01  5.1712382376115E-02
147  1.4600000000000E+00  2.0012081944544E-01  4.0346977765142E-02
148  1.4700000000000E+00  1.8704845834933E-01  3.0795699848752E-02
149  1.4800000000000E+00  1.7171349780611E-01  2.2915216121987E-02
150  1.4900000000000E+00  1.5464206129894E-01  1.6548800265864E-02
151  1.5000000000000E+00  1.3637984181724E-01  1.1530165689516E-02
152  1.5100000000000E+00  1.1748112777298E-01  7.6874562387220E-03
153  1.5200000000000E+00  9.8497576044396E-02  4.8473377949860E-03
154  1.5300000000000E+00  7.9968020809043E-02  2.8388750049496E-03
155  1.5400000000000E+00  6.2410094294503E-02  1.4970633856346E-03
156  1.5500000000000E+00  4.6300558965136E-02  6.6859652727434E-04
157  1.5600000000000E+00  3.2071153473058E-02  2.1415560626558E-04
158  1.5700000000000E+00  2.0101937965542E-02  1.1193257236714E-05
159  1.5800000000000E+00  1.0715577928937E-02 -4.3199042109999E-05
160  1.5900000000000E+00  4.1454091191620E-03 -2.9648798768875E-05
161  1.6000000000000E+00  6.7560938272512E-04 -6.0484413174156E-06
162  1.6100000000000E+00 -7.1939826888884E-05  7.5377779257499E-07
163  1.6200000000000E+00  2.1617700991888E-05 -2.1819068843803E-07
164  1.63 -0.  0.
165  1.64  0. -0.
166  1.65  0.  0.
167  1.66  0.  0.
168  1.67  0.  0.
169  1.68  0.  0.
170  1.69  0.  0.
171  1.70  0.  0.
172  1.71  0.  0.
173  1.72  0.  0.
174  1.73  0.  0.
175  1.74  0.  0.
176  1.75  0.  0.
177  1.76  0.  0.
178  1.77  0.  0.
179  1.78  0.  0.
180  1.79  0.  0.
181  1.80  0.  0.
182  1.81  0.  0.
183  1.82  0.  0.
184  1.83  0.  0.
185  1.84  0.  0.
186  1.85  0.  0.
187  1.86  0.  0.
188  1.87  0.  0.
189  1.88  0.  0.
190  1.89  0.  0.
191  1.90  0.  0.
192  1.91  0.  0.
193  1.92  0.  0.
194  1.93  0.  0.
195  1.94  0.  0.
196  1.95  0.  0.
197  1.96  0.  0.
198  1.97  0.  0.
199  1.98  0.  0.
200  1.99  0.  0.
201  2.00  0.  0.
202  2.01  0.  0.
203  2.02  0.  0.
204  2.03  0.  0.
205  2.04  0.  0.
206  2.05  0.  0.
207  2.06  0.  0.
208  2.07  0.  0.
209  2.08  0.  0.
210  2.09  0.  0.
211  2.10  0.  0.
212  2.11  0.  0.
213  2.12  0.  0.
214  2.13  0.  0.
215  2.14  0.  0.
216  2.15  0.  0.
217  2.16  0.  0.
218  2.17  0.  0.
219  2.18  0.  0.
220  2.19  0.  0.
221  2.20  0.  0.
222  2.21  0.  0.
223  2.22  0.  0.
224  2.23  0.  0.
225  2.24  0.  0.
226  2.25  0.  0.
227  2.26  0.  0.
228  2.27  0.  0.
229  2.28  0.  0.
230  2.29  0.  0.
231  2.30  0.  0.
232  2.31  0.  0.
233  2.32  0.  0.
234  2.33  0.  0.
235  2.34  0.  0.
236  2.35  0.  0.
237  2.36  0.  0.
238  2.37  0.  0.
239  2.38  0.  0.
240  2.39  0.  0.
241  2.40  0.  0.
242  2.41  0.  0.
243  2.42  0.  0.
244  2.43  0.  0.
245  2.44  0.  0.
246  2.45  0.  0.
247  2.46  0.  0.
248  2.47  0.  0.
249  2.48  0.  0.
250  2.49  0.  0.
251  2.50  0.  0.
252  2.51  0.  0.
253  2.52  0.  0.
254  2.53  0.  0.
255  2.54  0.  0.
256  2.55  0.  0.
257  2.56  0.  0.
258  2.57  0.  0.
259  2.58  0.  0.
260  2.59  0.  0.
261  2.60  0.  0.
262  2.61  0.  0.
263  2.62  0.  0.
264  2.63  0.  0.
265  2.64  0.  0.
266  2.65  0.  0.
267  2.66  0.  0.
268  2.67  0.  0.
269  2.68  0.  0.
270  2.69  0.  0.
271  2.70  0.  0.
272  2.71  0.  0.
273  2.72  0.  0.
274  2.73  0.  0.
275  2.74  0.  0.
276  2.75  0.  0.
277  2.76  0.  0.
278  2.77  0.  0.
279  2.78  0.  0.
280  2.79  0.  0.
281  2.80  0.  0.
282  2.81  0.  0.
283  2.82  0.  0.
284  2.83  0.  0.
285  2.84  0.  0.
286  2.85  0.  0.
287  2.86  0.  0.
288  2.87  0.  0.
289  2.88  0.  0.
290  2.89  0.  0.
291  2.90  0.  0.
292  2.91  0.  0.
293  2.92  0.  0.
294  2.93  0.  0.
295  2.94  0.  0.
296  2.95  0.  0.
297  2.96  0.  0.
298  2.97  0.  0.
299  2.98  0.  0.
300  2.99  0.  0.
301  3.00  0.  0.
302  3.01  0.  0.
303  3.02  0.  0.
304  3.03  0.  0.
305  3.04  0.  0.
306  3.05  0.  0.
307  3.06  0.  0.
308  3.07  0.  0.
309  3.08  0.  0.
310  3.09  0.  0.
311  3.10  0.  0.
312  3.11  0.  0.
313  3.12  0.  0.
314  3.13  0.  0.
315  3.14  0.  0.
316  3.15  0.  0.
317  3.16  0.  0.
318  3.17  0.  0.
319  3.18  0.  0.
320  3.19  0.  0.
321  3.20  0.  0.
322  3.21  0.  0.
323  3.22  0.  0.
324  3.23  0.  0.
325  3.24  0.  0.
326  3.25  0.  0.
327  3.26  0.  0.
328  3.27  0.  0.
329  3.28  0.  0.
330  3.29  0.  0.
331  3.30  0.  0.
332  3.31  0.  0.
333  3.32  0.  0.
334  3.33  0.  0.
335  3.34  0.  0.
336  3.35  0.  0.
337  3.36  0.  0.
338  3.37  0.  0.
339  3.38  0.  0.
340  3.39  0.  0.
341  3.40  0.  0.
342  3.41  0.  0.
343  3.42  0.  0.
344  3.43  0.  0.
345  3.44  0.  0.
346  3.45  0.  0.
347  3.46  0.  0.
348  3.47  0.  0.
349  3.48  0.  0.
350  3.49  0.  0.
351  3.50  0.  0.
352  3.51  0.  0.
353  3.52  0.  0.
354  3.53  0.  0.
355  3.54  0.  0.
356  3.55  0.  0.
357  3.56  0.  0.
358  3.57  0.  0.
359  3.58  0.  0.
360  3.59  0.  0.
361  3.60  0.  0.
362  3.61  0.  0.
363  3.62  0.  0.
364  3.63  0.  0.
365  3.64  0.  0.
366  3.65  0.  0.
367  3.66  0.  0.
368  3.67  0.  0.
369  3.68  0.  0.
370  3.69  0.  0.
371  3.70  0.  0.
372  3.71  0.  0.
373  3.72  0.  0.
374  3.73  0.  0.
375  3.74  0.  0.
376  3.75  0.  0.
377  3.76  0.  0.
378  3.77  0.  0.
379  3.78  0.  0.
380  3.79  0.  0.
381  3.80  0.  0.
382  3.81  0.  0.
383  3.82  0.  0.
384  3.83  0.  0.
385  3.84  0.  0.
386  3.85  0.  0.
387  3.86  0.  0.
388  3.87  0.  0.
389  3.88  0.  0.
390  3.89  0.  0.
391  3.90  0.  0.
392  3.91  0.  0.
393  3.92  0.  0.
394  3.93  0.  0.
395  3.94  0.  0.
396  3.95  0.  0.
397  3.96  0.  0.
398  3.97  0.  0.
399  3.98  0.  0.
400  3.99  0.  0.
401  4.00  0.  0.
402  4.01  0.  0.
403  4.02  0.  0.
404  4.03  0.  0.
405  4.04  0.  0.
406  4.05  0.  0.
407  4.06  0.  0.
408  4.07  0.  0.
409  4.08  0.  0.
410  4.09  0.  0.
411  4.10  0.  0.
412  4.11  0.  0.
413  4.12  0.  0.
414  4.13  0.  0.
415  4.14  0.  0.
416  4.15  0.  0.
417  4.16  0.  0.
418  4.17  0.  0.
419  4.18  0.  0.
420  4.19  0.  0.
421  4.20  0.  0.
422  4.21  0.  0.
423  4.22  0.  0.
424  4.23  0.  0.
425  4.24  0.  0.
426  4.25  0.  0.
427  4.26  0.  0.
428  4.27  0.  0.
429  4.28  0.  0.
430  4.29  0.  0.
431  4.30  0.  0.
432  4.31  0.  0.
433  4.32  0.  0.
434  4.33  0.  0.
435  4.34  0.  0.
436  4.35  0.  0.
437  4.36  0.  0.
438  4.37  0.  0.
439  4.38  0.  0.
440  4.39  0.  0.
441  4.40  0.  0.
442  4.41  0.  0.
443  4.42  0.  0.
444  4.43  0.  0.
445  4.44  0.  0.
446  4.45  0.  0.
447  4.46  0.  0.
448  4.47  0.  0.
449  4.48  0.  0.
450  4.49  0.  0.
451  4.50  0.  0.
452  4.51  0.  0.
453  4.52  0.  0.
454  4.53  0.  0.
455  4.54  0.  0.
456  4.55  0.  0.
457  4.56  0.  0.
458  4.57  0.  0.
459  4.58  0.  0.
460  4.59  0.  0.
461  4.60  0.  0.
462  4.61  0.  0.
463  4.62  0.  0.
464  4.63  0.  0.
465  4.64  0.  0.
466  4.65  0.  0.
467  4.66  0.  0.
468  4.67  0.  0.
469  4.68  0.  0.
470  4.69  0.  0.
471  4.70  0.  0.
472  4.71  0.  0.
473  4.72  0.  0.
474  4.73  0.  0.
475  4.74  0.  0.
476  4.75  0.  0.
477  4.76  0.  0.
478  4.77  0.  0.
479  4.78  0.  0.
480  4.79  0.  0.
481  4.80  0.  0.
482  4.81  0.  0.
483  4.82  0.  0.
484  4.83  0.  0.
485  4.84  0.  0.
486  4.85  0.  0.
487  4.86  0.  0.
488  4.87  0.  0.
489  4.88  0.  0.
490  4.89  0.  0.
491  4.90  0.  0.
492  4.91  0.  0.
493  4.92  0.  0.
494  4.93  0.  0.
495  4.94  0.  0.
496  4.95  0.  0.
497  4.96  0.  0.
498  4.97  0.  0.
499  4.98  0.  0.
500  4.99  0.  0.
501  5.00  0.  0.
502  5.01  0.  0.
503  5.02  0.  0.
504  5.03  0.  0.
505  5.04  0.  0.
506  5.05  0.  0.
507  5.06  0.  0.
508  5.07  0.  0.
509  5.08  0.  0.
510  5.09  0.  0.
511  5.10  0.  0.
512  5.11  0.  0.
513  5.12  0.  0.
514  5.13  0.  0.
515  5.14  0.  0.
516  5.15  0.  0.
517  5.16  0.  0.
518  5.17  0.  0.
519  5.18  0.  0.
520  5.19  0.  0.
521  5.20  0.  0.
522  5.21  0.  0.
523  5.22  0.  0.
524  5.23  0.  0.
525  5.24  0.  0.
526  5.25  0.  0.
527  5.26  0.  0.
528  5.27  0.  0.
529  5.28  0.  0.
530  5.29  0.  0.
531  5.30  0.  0.
532  5.31  0.  0.
533  5.32  0.  0.
534  5.33  0.  0.
535  5.34  0.  0.
536  5.35  0.  0.
537  5.36  0.  0.
538  5.37  0.  0.
539  5.38  0.  0.
540  5.39  0.  0.
541  5.40  0.  0.
542  5.41  0.  0.
543  5.42  0.  0.
544  5.43  0.  0.
545  5.44  0.  0.
546  5.45  0.  0.
547  5.46  0.  0.
548  5.47  0.  0.
549  5.48  0.  0.
550  5.49  0.  0.
551  5.50  0.  0.
552  5.51  0.  0.
553  5.52  0.  0.
554  5.53  0.  0.
555  5.54  0.  0.
556  5.55  0.  0.
557  5.56  0.  0.
558  5.57  0.  0.
559  5.58  0.  0.
560  5.59  0.  0.
561  5.60  0.  0.
562  5.61  0.  0.
563  5.62  0.  0.
564  5.63  0.  0.
565  5.64  0.  0.
566  5.65  0.  0.
567  5.66  0.  0.
568  5.67  0.  0.
569  5.68  0.  0.
570  5.69  0.  0.
571  5.70  0.  0.
572  5.71  0.  0.
573  5.72  0.  0.
574  5.73  0.  0.
575  5.74  0.  0.
576  5.75  0.  0.
577  5.76  0.  0.
578  5.77  0.  0.
579  5.78  0.  0.
580  5.79  0.  0.
581  5.80  0.  0.
582  5.81  0.  0.
583  5.82  0.  0.
584  5.83  0.  0.
585  5.84  0.  0.
586  5.85  0.  0.
587  5.86  0.  0.
588  5.87  0.  0.
589  5.88  0.  0.
590  5.89  0.  0.
591  5.90  0.  0.
592  5.91  0.  0.
593  5.92  0.  0.
594  5.93  0.  0.
595  5.94  0.  0.
596  5.95  0.  0.
597  5.96  0.  0.
598  5.97  0.  0.
599  5.98  0.  0.
600  5.99  0.  0.
1                         2.4497454206739E+00  5.5001563193603E-01
1  0.0000000000000E+00 -4.7717636911249E-08  4.6485121515949E-08
2  1.0000000000000E-02 -1.6453185246644E-03  1.9079292320913E-03
3  2.0000000000000E-02 -6.5306939109881E-03  7.5835053705635E-03
4  3.0000000000000E-02 -1.4505623782112E-02  1.6883287093481E-02
5  4.0000000000000E-02 -2.5323369117126E-02  2.9572155046664E-02
6  5.0000000000000E-02 -3.8647000778163E-02  4.5329137641990E-02
7  6.0000000000000E-02 -5.4057665251847E-02  6.3755372561407E-02
8  7.0000000000000E-02 -7.1064875686695E-02  8.4384014752423E-02
9  8.0000000000000E-02 -8.9118586590419E-02  1.0669185521565E-01
10  9.0000000000000E-02 -1.0762276836098E-01  1.3011237384537E-01
11  1.0000000000000E-01 -1.2595016213234E-01  1.5404991494353E-01
12  1.1000000000000E-01 -1.4345786704476E-01  1.7789464659476E-01
13  1.2000000000000E-01 -1.5950339165879E-01  2.0103794551077E-01
14  1.3000000000000E-01 -1.7346078930290E-01  2.2288783769383E-01
15  1.4000000000000E-01 -1.8473649396461E-01  2.4288412260950E-01
16  1.5000000000000E-01 -1.9278447899773E-01  2.6051281458136E-01
17  1.6000000000000E-01 -1.9712037531459E-01  2.7531954971003E-01
18  1.7000000000000E-01 -1.9733420855737E-01  2.8692162946532E-01
19  1.8000000000000E-01 -1.9310144549956E-01  2.9501840270341E-01
20  1.9000000000000E-01 -1.8419207794060E-01  2.9939972554423E-01
21  2.0000000000000E-01 -1.7047751678021E-01  2.9995228246518E-01
22  2.1000000000000E-01 -1.5193511880435E-01  2.9666360114179E-01
23  2.2000000000000E-01 -1.2865022286614E-01  2.8962364688310E-01
24  2.3000000000000E-01 -1.0081562938652E-01  2.7902393876472E-01
25  2.4000000000000E-01 -6.8728516140046E-02  2.6515418747435E-01
26  2.5000000000000E-01 -3.2784842796234E-02  2.4839651313418E-01
27  2.6000000000000E-01  6.5286446946451E-03  2.2921735861502E-01
28  2.7000000000000E-01  4.8644642387201E-02  2.0815726879173E-01
29  2.8000000000000E-01  9.2927528932653E-02  1.8581875753680E-01
30  2.9000000000000E-01  1.3868734996247E-01  1.6285253081130E-01
31  3.0000000000000E-01  1.8519523544984E-01  1.3994237489878E-01
32  3.1000000000000E-01  2.3169990377401E-01  1.1778905266911E-01
33  3.2000000000000E-01  2.7744487843226E-01  9.7093576941804E-02
34  3.3000000000000E-01  3.2168602391638E-01  7.8540247893887E-02
35  3.4000000000000E-01  3.6370899668457E-01  6.2779850562388E-02
36  3.5000000000000E-01  4.0284620570693E-01  5.0413408560288E-02
37  3.6000000000000E-01  4.3849288483350E-01  4.1976881090600E-02
38  3.7000000000000E-01  4.7012189610993E-01  3.7927172348044E-02
39  3.8000000000000E-01  4.9729690882639E-01  3.8629795784206E-02
40  3.9000000000000E-01  5.1968363300954E-01  4.4348501020388E-02
41  4.0000000000000E-01  5.3705882754714E-01  5.5237129148242E-02
42  4.1000000000000E-01  5.4931685128888E-01  7.1333913657619E-02
43  4.2000000000000E-01  5.5647357925937E-01  9.2558390321434E-02
44  4.3000000000000E-01  5.5866756438164E-01  1.1871102122521E-01
45  4.4000000000000E-01  5.5615838656685E-01  1.4947557703414E-01
46  4.5000000000000E-01  5.4932219432300E-01  1.8442425889876E-01
47  4.6000000000000E-01  5.3864450776841E-01  2.2302547851271E-01
48  4.7000000000000E-01  5.2471041467951E-01  2.6465415316972E-01
49  4.8000000000000E-01  5.0819235154760E-01  3.0860431362056E-01
50  4.9000000000000E-01  4.8983571819582E-01  3.5410376745849E-01
51  5.0000000000000E-01  4.7044262602412E-01  4.0033051093494E-01
52  5.1000000000000E-01  4.5085412521435E-01  4.4643053869669E-01
53  5.2000000000000E-01  4.3193129418128E-01  4.9153666497104E-01
54  5.3000000000000E-01  4.1453560429057E-01  5.3478794208649E-01
55  5.4000000000000E-01  3.9950899365281E-01  5.7534924359797E-01
56  5.5000000000000E-01  3.8765409510438E-01  6.1243057019275E-01
57  5.6000000000000E-01  3.7971506496939E-01  6.4530563728094E-01
58  5.7000000000000E-01  3.7635945074476E-01  6.7332931380268E-01
59  5.8000000000000E-01  3.7816151756201E-01  6.9595350217419E-01
60  5.9000000000000E-01  3.8558742547482E-01  7.1274107909058E-01
61  6.0000000000000E-01  3.9898261282918E-01  7.2337755553552E-01
62  6.1000000000000E-01  4.1856169592774E-01  7.2768016104953E-01
63  6.2000000000000E-01  4.4440114282028E-01  7.2560411112398E-01
64  6.3000000000000E-01  4.7643492042821E-01  7.1724587639877E-01
65  6.4000000000000E-01  5.1445325057611E-01  7.0284333688431E-01
66  6.5000000000000E-01  5.5810454321426E-01  6.8277277232469E-01
67  6.6000000000000E-01  6.0690050561597E-01  6.5754270960535E-01
68  6.7000000000000E-01  6.6022435613336E-01  6.2778471826076E-01
69  6.8000000000000E-01  7.1734200172507E-01  5.9424131411718E-01
70  6.9000000000000E-01  7.7741597146087E-01  5.5775119737768E-01
71  7.0000000000000E-01  8.3952183505276E-01  5.1923211353335E-01
72  7.1000000000000E-01  9.0266677757543E-01  4.7966168196025E-01
73  7.2000000000000E-01  9.6580995024142E-01  4.4005658663059E-01
74  7.3000000000000E-01  1.0278841735695E+00  4.0145056486925E-01
75  7.4000000000000E-01  1.0878185345526E+00  3.6487166252648E-01
76  7.5000000000000E-01  1.1445613943414E+00  3.3131924650050E-01
77  7.6000000000000E-01  1.1971033081456E+00  3.0174127763331E-01
78  7.7000000000000E-01  1.2444993549425E+00  2.7701234823377E-01
79  7.8000000000000E-01  1.2858903813701E+00  2.5791297870965E-01
80  7.9000000000000E-01  1.3205226818202E+00  2.4511064710339E-01
81  8.0000000000000E-01  1.3477656649661E+00  2.3914299405278E-01
82  8.1000000000000E-01  1.3671270952562E+00  2.4040360439734E-01
83  8.2000000000000E-01  1.3782655455384E+00  2.4913071610909E-01
84  8.3000000000000E-01  1.3809997530227E+00  2.6539914843195E-01
85  8.4000000000000E-01  1.3753146341135E+00  2.8911567524832E-01
86  8.5000000000000E-01  1.3613637829435E+00  3.2001799809734E-01
87  8.6000000000000E-01  1.3394683523017E+00  3.5767739742975E-01
88  8.7000000000000E-01  1.3101122925026E+00  4.0150506218539E-01
89  8.8000000000000E-01  1.2739340019878E+00  4.5076201828387E-01
90  8.9000000000000E-01  1.2317145214015E+00  5.0457249782475E-01
91  9.0000000000000E-01  1.1843624788736E+00  5.6194051440318E-01
92  9.1000000000000E-01  1.1328960666187E+00  6.2176933762675E-01
93  9.2000000000000E-01  1.0784223961382E+00  6.8288349326677E-01
94  9.3000000000000E-01  1.0221146398025E+00  7.4405285598107E-01
95  9.4000000000000E-01  9.6518741902423E-01  8.0401835056831E-01
96  9.5000000000000E-01  9.0887094243523E-01  8.6151873642194E-01
97  9.6000000000000E-01  8.5438443040022E-01  9.1531791925941E-01
98  9.7000000000000E-01  8.0290938407296E-01  9.6423221506248E-01
99  9.8000000000000E-01  7.5556326741993E-01  1.0071569840258E+00
100  9.9000000000000E-01  7.1337416889872E-01  1.0430920574439E+00
101  1.0000000000000E+00  6.7725699567693E-01  1.0711653979220E+00
102  1.0100000000000E+00  6.4799172759552E-01  1.0906544628284E+00
103  1.0200000000000E+00  6.2620422097439E-01  1.1010047820028E+00
104  1.0300000000000E+00  6.1235000445162E-01  1.1018453127000E+00
105  1.0400000000000E+00  6.0670145126293E-01  1.0930001965947E+00
106  1.0500000000000E+00  6.0933864591979E-01  1.0744966141093E+00
107  1.0600000000000E+00  6.2014418927019E-01  1.0465685091512E+00
108  1.0700000000000E+00  6.3880210606943E-01  1.0096560408414E+00
109  1.0800000000000E+00  6.6480093511307E-01  9.6440070624454E-01
110  1.0900000000000E+00  6.9744099508296E-01  9.1163616803327E-01
111  1.1000000000000E+00  7.3584573194145E-01  8.5237491094039E-01
112  1.1100000000000E+00  7.7897696704676E-01  7.8779093967310E-01
113  1.1200000000000E+00  8.2565378173726E-01  7.1919881603740E-01
114  1.1300000000000E+00  8.7457469507289E-01  6.4802941319090E-01
115  1.1400000000000E+00  9.2434271891913E-01  5.7580283798035E-01
116  1.1500000000000E+00  9.7349280982396E-01  5.0409903700018E-01
117  1.1600000000000E+00  1.0205211818755E+00  4.3452665661249E-01
118  1.1700000000000E+00  1.0639158999215E+00  3.6869077071176E-01
119  1.1800000000000E+00  1.1021881394608E+00  3.0816012123927E-01
120  1.1900000000000E+00  1.1339034787301E+00  2.5443453480311E-01
121  1.2000000000000E+00  1.1577125807244E+00  2.0891318359450E-01
122  1.2100000000000E+00  1.1723806283334E+00  1.7286434986351E-01
123  1.2200000000000E+00  1.1768148943362E+00  1.4739733076377E-01
124  1.2300000000000E+00  1.1700898595775E+00  1.3343708448238E-01
125  1.2400000000000E+00  1.1514693366978E+00  1.3170216989891E-01
126  1.2500000000000E+00  1.1204251120396E+00  1.4268647191793E-01
127  1.2600000000000E+00  1.0766516847487E+00  1.6664513316055E-01
128  1.2700000000000E+00  1.0200767571962E+00  2.0358503249036E-01
129  1.2800000000000E+00  9.5086721379767E-01  2.5326006278629E-01
130  1.2900000000000E+00  8.6943041479246E-01  3.1517136584234E-01
131  1.3000000000000E+00  7.7641072487484E-01  3.8857258410952E-01
132  1.3100000000000E+00  6.7268129231046E-01  4.7248008867378E-01
133  1.3200000000000E+00  5.5933119099984E-01  5.6568804177629E-01
134  1.3300000000000E+00  4.3764813262287E-01  6.6678805370678E-01
135  1.3400000000000E+00  3.0909704735564E-01  7.7419309922159E-01
136  1.3500000000000E+00  1.7529491799861E-01  8.8616526951819E-01
137  1.3600000000000E+00  3.7982331187143E-02  1.0008468548190E+00
138  1.3700000000000E+00 -1.0100772048106E-01  1.1162941809617E+00
139  1.3800000000000E+00 -2.3978319186544E-01  1.2305135628905E+00
140  1.3900000000000E+00 -3.7642785229903E-01  1.3414986894410E+00
141  1.4000000000000E+00 -5.0903698882004E-01  1.4472687190255E+00
142  1.4100000000000E+00 -6.3575324611198E-01  1.5459063450617E+00
143  1.4200000000000E+00 -7.5480189557974E-01  1.6355950840050E+00
144  1.4300000000000E+00 -8.6452483202283E-01  1.7146550476246E+00
145  1.4400000000000E+00 -9.6341261683420E-01  1.7815764850536E+00
146  1.4500000000000E+00 -1.0501339207882E+00  1.8350504182695E+00
147  1.4600000000000E+00 -1.1235617669474E+00  1.8739957466668E+00
148  1.4700000000000E+00 -1.1827960340443E+00  1.8975822612127E+00
149  1.4800000000000E+00 -1.2271817517377E+00  1.9052490851106E+00
150  1.4900000000000E+00 -1.2563227997451E+00  1.8967181441675E+00
151  1.5000000000000E+00 -1.2700907122890E+00  1.8720023654209E+00
152  1.5100000000000E+00 -1.2686283844981E+00  1.8314084037614E+00
153  1.5200000000000E+00 -1.2523485776031E+00  1.7755338025126E+00
154  1.5300000000000E+00 -1.2219272223669E+00  1.7052586024551E+00
155  1.5400000000000E+00 -1.1782916232988E+00  1.6217315226229E+00
156  1.5500000000000E+00 -1.1226037677021E+00  1.5263509431531E+00
157  1.5600000000000E+00 -1.0562390415151E+00  1.4207410234542E+00
158  1.5700000000000E+00 -9.8076074601922E-01  1.3067233856662E+00
159  1.5800000000000E+00 -8.9789089423013E-01  1.1862848822191E+00
160  1.5900000000000E+00 -8.0947784130301E-01  1.0615420452616E+00
161  1.6000000000000E+00 -7.1746136828188E-01  9.3470287924315E-01
162  1.6100000000000E+00 -6.2383588028329E-01  8.0802674095888E-01
163  1.6200000000000E+00 -5.3061247019684E-01  6.8378289455667E-01
164  1.6300000000000E+00 -4.3978025676285E-01  5.6420845951519E-01