Si    ONCVPSP-4.0.1  r_core=   1.60630   1.71555   1.91059
14.0000      4.0000      241226    zatom,zion,pspd
8      11   2     4   600     0    pspcod,pspxc,lmax,lloc,mmax,r2well
5.99000000  4.00000000  0.00000000    rchrg fchrg qchrg
2     2     2     0     0    nproj
1     1           extension_switch
0                         6.7554244907976E+00  8.0391177005479E-01
1  0.0000000000000E+00  9.0505483663073E-09 -1.6420344785273E-08
2  1.0000000000000E-02  3.1406483313811E-02 -4.1461802917977E-03
3  2.0000000000000E-02  6.2976949237797E-02 -8.5887766441295E-03
4  3.0000000000000E-02  9.4870784806481E-02 -1.3616207058396E-02
5  4.0000000000000E-02  1.2723829182594E-01 -1.9501082280366E-02
6  5.0000000000000E-02  1.6021640667219E-01 -2.6492769981103E-02
7  6.0000000000000E-02  1.9392472833329E-01 -3.4810508232861E-02
8  7.0000000000000E-02  2.2846194651707E-01 -4.4637231545413E-02
9  8.0000000000000E-02  2.6390275259533E-01 -5.6114256307980E-02
10  9.0000000000000E-02  3.0029530522784E-01 -6.9336952665194E-02
11  1.0000000000000E-01  3.3765930994840E-01 -8.4351507091812E-02
12  1.1000000000000E-01  3.7598475808181E-01 -1.0115285473610E-01
13  1.2000000000000E-01  4.1523135540696E-01 -1.1968383354816E-01
14  1.3000000000000E-01  4.5532865532115E-01 -1.3983558391125E-01
15  1.4000000000000E-01  4.9617689524609E-01 -1.6144918859564E-01
16  1.5000000000000E-01  5.3764851900548E-01 -1.8431851901317E-01
17  1.6000000000000E-01  5.7959035225790E-01 -2.0819422562554E-01
18  1.7000000000000E-01  6.2182638313871E-01 -2.3278878359299E-01
19  1.8000000000000E-01  6.6416108638741E-01 -2.5778247995652E-01
20  1.9000000000000E-01  7.0638321672613E-01 -2.8283020639633E-01
21  2.0000000000000E-01  7.4826998639476E-01 -3.0756890241688E-01
22  2.1000000000000E-01  7.8959153278512E-01 -3.3162547811992E-01
23  2.2000000000000E-01  8.3011557525766E-01 -3.5462503391121E-01
24  2.3000000000000E-01  8.6961215562645E-01 -3.7619918682496E-01
25  2.4000000000000E-01  9.0785835457291E-01 -3.9599430983180E-01
26  2.5000000000000E-01  9.4464287645025E-01 -4.1367949161312E-01
27  2.6000000000000E-01  9.7977039757206E-01 -4.2895402982661E-01
28  2.7000000000000E-01  1.0130655780882E+00 -4.4155428074907E-01
29  2.8000000000000E-01  1.0443766448330E+00 -4.5125970215297E-01
30  2.9000000000000E-01  1.0735784619303E+00 -4.5789794405644E-01
31  3.0000000000000E-01  1.1005750172508E+00 -4.6134886319144E-01
32  3.1000000000000E-01  1.1253012657952E+00 -4.6154736119913E-01
33  3.2000000000000E-01  1.1477242854358E+00 -4.5848497314674E-01
34  3.3000000000000E-01  1.1678437158702E+00 -4.5221016137743E-01
35  3.4000000000000E-01  1.1856914677878E+00 -4.4282729931583E-01
36  3.5000000000000E-01  1.2013307057577E+00 -4.3049435999284E-01
37  3.6000000000000E-01  1.2148541248516E+00 -4.1541935404150E-01
38  3.7000000000000E-01  1.2263815571450E+00 -3.9785559107168E-01
39  3.8000000000000E-01  1.2360569596363E+00 -3.7809586598795E-01
40  3.9000000000000E-01  1.2440448494278E+00 -3.5646569733732E-01
41  4.0000000000000E-01  1.2505262649172E+00 -3.3331576757051E-01
42  4.1000000000000E-01  1.2556943429381E+00 -3.0901373463794E-01
43  4.2000000000000E-01  1.2597496110213E+00 -2.8393560015749E-01
44  4.3000000000000E-01  1.2628951009982E+00 -2.5845683110237E-01
45  4.4000000000000E-01  1.2653313948705E+00 -2.3294343927167E-01
46  4.5000000000000E-01  1.2672517161064E+00 -2.0774322552738E-01
47  4.6000000000000E-01  1.2688371792303E+00 -1.8317739381611E-01
48  4.7000000000000E-01  1.2702523077429E+00 -1.5953273335058E-01
49  4.8000000000000E-01  1.2716409250910E+00 -1.3705455612151E-01
50  4.9000000000000E-01  1.2731225157029E+00 -1.1594056136132E-01
51  5.0000000000000E-01  1.2747891431776E+00 -9.6335779003121E-02
52  5.1000000000000E-01  1.2767030007666E+00 -7.8328720982582E-02
53  5.2000000000000E-01  1.2788946555743E+00 -6.1948842904148E-02
54  5.3000000000000E-01  1.2813620327162E+00 -4.7165389707800E-02
55  5.4000000000000E-01  1.2840701693449E+00 -3.3887668148648E-02
56  5.5000000000000E-01  1.2869517513348E+00 -2.1966756819643E-02
57  5.6000000000000E-01  1.2899084278867E+00 -1.1198631809546E-02
58  5.7000000000000E-01  1.2928128817475E+00 -1.3286536238396E-03
59  5.8000000000000E-01  1.2955116155492E+00  7.9426705701361E-03
60  5.9000000000000E-01  1.2978283983094E+00  1.6952765266832E-02
61  6.0000000000000E-01  1.2995683008005E+00  2.6069049067303E-02
62  6.1000000000000E-01  1.3005222346129E+00  3.5680149524776E-02
63  6.2000000000000E-01  1.3004718976403E+00  4.6186459887495E-02
64  6.3000000000000E-01  1.2991950186706E+00  5.7990244436825E-02
65  6.4000000000000E-01  1.2964707860236E+00  7.1485511885699E-02
66  6.5000000000000E-01  1.2920853399155E+00  8.7047884305664E-02
67  6.6000000000000E-01  1.2858372055859E+00  1.0502469207127E-01
68  6.7000000000000E-01  1.2775425442801E+00  1.2572552322740E-01
69  6.8000000000000E-01  1.2670401019509E+00  1.4941344849794E-01
70  6.9000000000000E-01  1.2541957409925E+00  1.7629713096817E-01
71  7.0000000000000E-01  1.2389064483484E+00  2.0652401250826E-01
72  7.1000000000000E-01  1.2211037237859E+00  2.4017474758664E-01
73  7.2000000000000E-01  1.2007562647968E+00  2.7725902967515E-01
74  7.3000000000000E-01  1.1778718792011E+00  3.1771292649346E-01
75  7.4000000000000E-01  1.1524985728043E+00  3.6139780847287E-01
76  7.5000000000000E-01  1.1247247770364E+00  4.0810092071620E-01
77  7.6000000000000E-01  1.0946787000138E+00  4.5753761310709E-01
78  7.7000000000000E-01  1.0625268035237E+00  5.0935520684727E-01
79  7.8000000000000E-01  1.0284714276075E+00  5.6313843936112E-01
80  7.9000000000000E-01  9.9274760331835E-01  6.1841639399568E-01
81  8.0000000000000E-01  9.5561911241834E-01  6.7467078704666E-01
82  8.1000000000000E-01  9.1737386987058E-01  7.3134545310955E-01
83  8.2000000000000E-01  8.7831872058763E-01  7.8785684130629E-01
84  8.3000000000000E-01  8.3877375566792E-01  8.4360531021834E-01
85  8.4000000000000E-01  7.9906626497350E-01  8.9798698894729E-01
86  8.5000000000000E-01  7.5952445210434E-01  9.5040595611133E-01
87  8.6000000000000E-01  7.2047104438686E-01  1.0002864781616E+00
88  8.7000000000000E-01  6.8221693425256E-01  1.0470850434474E+00
89  8.8000000000000E-01  6.4505498923061E-01  1.0903019291422E+00
90  8.9000000000000E-01  6.0925416567363E-01  1.1294920445064E+00
91  9.0000000000000E-01  5.7505405629573E-01  1.1642748059386E+00
92  9.1000000000000E-01  5.4265999371204E-01  1.1943428166547E+00
93  9.2000000000000E-01  5.1223882157185E-01  1.2194691463156E+00
94  9.3000000000000E-01  4.8391543177620E-01  1.2395130330875E+00
95  9.4000000000000E-01  4.5777015093023E-01  1.2544238619100E+00
96  9.5000000000000E-01  4.3383704189988E-01  1.2642433075670E+00
97  9.6000000000000E-01  4.1210316748482E-01  1.2691055687790E+00
98  9.7000000000000E-01  3.9250884316826E-01  1.2692356592007E+00
99  9.8000000000000E-01  3.7494888507795E-01  1.2649457620915E+00
100  9.9000000000000E-01  3.5927483813621E-01  1.2566296966555E+00
101  1.0000000000000E+00  3.4529814832158E-01  1.2447555847897E+00
102  1.0100000000000E+00  3.3279422247936E-01  1.2298568463147E+00
103  1.0200000000000E+00  3.2150729963766E-01  1.2125216878659E+00
104  1.0300000000000E+00  3.1115603971864E-01  1.1933812847062E+00
105  1.0400000000000E+00  3.0143971929473E-01  1.1730968849968E+00
106  1.0500000000000E+00  2.9204490998887E-01  1.1523460918497E+00
107  1.0600000000000E+00  2.8265250354441E-01  1.1318085992507E+00
108  1.0700000000000E+00  2.7294493879866E-01  1.1121516731063E+00
109  1.0800000000000E+00  2.6261347996539E-01  1.0940156779387E+00
110  1.0900000000000E+00  2.5136539292523E-01  1.0779999528109E+00
111  1.1000000000000E+00  2.3893086671829E-01  1.0646493368354E+00
112  1.1100000000000E+00  2.2506953115623E-01  1.0544416350457E+00
113  1.1200000000000E+00  2.0957642834803E-01  1.0477762997028E+00
114  1.1300000000000E+00  1.9228730587724E-01  1.0449645804528E+00
115  1.1400000000000E+00  1.7308311216009E-01  1.0462213696165E+00
116  1.1500000000000E+00  1.5189358994429E-01  1.0516589367166E+00
117  1.1600000000000E+00  1.2869988163064E-01  1.0612827098380E+00
118  1.1700000000000E+00  1.0353607983197E-01  1.0749892211492E+00
119  1.1800000000000E+00  7.6489677804590E-02  1.0925662909386E+00
120  1.1900000000000E+00  4.7700896877379E-02  1.1136954792720E+00
121  1.2000000000000E+00  1.7360890976262E-02  1.1379567884314E+00
122  1.2100000000000E+00 -1.4291148243075E-02  1.1648355527207E+00
123  1.2200000000000E+00 -4.6971939247933E-02  1.1937314069371E+00
124  1.2300000000000E+00 -8.0359042754413E-02  1.2239691809198E+00
125  1.2400000000000E+00 -1.1409668839536E-01  1.2548115264902E+00
126  1.2500000000000E+00 -1.4780238693057E-01  1.2854730456755E+00
127  1.2600000000000E+00 -1.8107420165630E-01  1.3151356557108E+00
128  1.2700000000000E+00 -2.1349853794664E-01  1.3429648982808E+00
129  1.2800000000000E+00 -2.4465829784020E-01  1.3681268779465E+00
130  1.2900000000000E+00 -2.7414123760113E-01  1.3898054983447E+00
131  1.3000000000000E+00 -3.0154836051478E-01  1.4072196550622E+00
132  1.3100000000000E+00 -3.2650217484689E-01  1.4196400411011E+00
133  1.3200000000000E+00 -3.4865464805631E-01  1.4264052248559E+00
134  1.3300000000000E+00 -3.6769469298230E-01  1.4269366714306E+00
135  1.3400000000000E+00 -3.8335502969726E-01  1.4207523956548E+00
136  1.3500000000000E+00 -3.9541827799036E-01  1.4074789592366E+00
137  1.3600000000000E+00 -4.0372214971760E-01  1.3868615544578E+00
138  1.3700000000000E+00 -4.0816362731126E-01  1.3587719522555E+00
139  1.3800000000000E+00 -4.0870203413194E-01  1.3232141325144E+00
140  1.3900000000000E+00 -4.0536092392146E-01  1.2803274586169E+00
141  1.4000000000000E+00 -3.9822873968075E-01  1.2303873053588E+00
142  1.4100000000000E+00 -3.8745821654460E-01  1.1738030986215E+00
143  1.4200000000000E+00 -3.7326452816780E-01  1.1111137757168E+00
144  1.4300000000000E+00 -3.5592220109627E-01  1.0429807257332E+00
145  1.4400000000000E+00 -3.3576084643840E-01  9.7017831925075E-01
146  1.4500000000000E+00 -3.1315978187672E-01  8.9358218445265E-01
147  1.4600000000000E+00 -2.8854163958780E-01  8.1415543180352E-01
148  1.4700000000000E+00 -2.6236507630671E-01  7.3293307075972E-01
149  1.4800000000000E+00 -2.3511672020159E-01  6.5100489868217E-01
150  1.4900000000000E+00 -2.0730250501065E-01  5.6949717343898E-01
151  1.5000000000000E+00 -1.7943854454951E-01  4.8955338594288E-01
152  1.5100000000000E+00 -1.5204182358347E-01  4.1231469695074E-01
153  1.5200000000000E+00 -1.2562042800385E-01  3.3889947829876E-01
154  1.5300000000000E+00 -1.0066758099178E-01  2.7039061469889E-01
155  1.5400000000000E+00 -7.7666675942497E-02  2.0784475172424E-01
156  1.5500000000000E+00 -5.7042496405356E-02  1.5219321986176E-01
157  1.5600000000000E+00 -3.9168302263928E-02  1.0425640830833E-01
158  1.5700000000000E+00 -2.4366940206551E-02  6.4745543704739E-02
159  1.5800000000000E+00 -1.2906941251131E-02  3.4255941892294E-02
160  1.5900000000000E+00 -4.9672782327420E-03  1.3176226642298E-02
161  1.6000000000000E+00 -8.0628243350125E-04  2.1386661649516E-03
162  1.6100000000000E+00  8.5370348511619E-05 -2.2657601859118E-04
163  1.6200000000000E+00 -2.5713905826836E-05  6.8218396838925E-05
164  1.63  0. -0.
165  1.64  0. -0.
166  1.65  0.  0.
167  1.66  0.  0.
168  1.67  0.  0.
169  1.68  0.  0.
170  1.69  0.  0.
171  1.70  0.  0.
172  1.71  0.  0.
173  1.72  0.  0.
174  1.73  0.  0.
175  1.74  0.  0.
176  1.75  0.  0.
177  1.76  0.  0.
178  1.77  0.  0.
179  1.78  0.  0.
180  1.79  0.  0.
181  1.80  0.  0.
182  1.81  0.  0.
183  1.82  0.  0.
184  1.83  0.  0.
185  1.84  0.  0.
186  1.85  0.  0.
187  1.86  0.  0.
188  1.87  0.  0.
189  1.88  0.  0.
190  1.89  0.  0.
191  1.90  0.  0.
192  1.91  0.  0.
193  1.92  0.  0.
194  1.93  0.  0.
195  1.94  0.  0.
196  1.95  0.  0.
197  1.96  0.  0.
198  1.97  0.  0.
199  1.98  0.  0.
200  1.99  0.  0.
201  2.00  0.  0.
202  2.01  0.  0.
203  2.02  0.  0.
204  2.03  0.  0.
205  2.04  0.  0.
206  2.05  0.  0.
207  2.06  0.  0.
208  2.07  0.  0.
209  2.08  0.  0.
210  2.09  0.  0.
211  2.10  0.  0.
212  2.11  0.  0.
213  2.12  0.  0.
214  2.13  0.  0.
215  2.14  0.  0.
216  2.15  0.  0.
217  2.16  0.  0.
218  2.17  0.  0.
219  2.18  0.  0.
220  2.19  0.  0.
221  2.20  0.  0.
222  2.21  0.  0.
223  2.22  0.  0.
224  2.23  0.  0.
225  2.24  0.  0.
226  2.25  0.  0.
227  2.26  0.  0.
228  2.27  0.  0.
229  2.28  0.  0.
230  2.29  0.  0.
231  2.30  0.  0.
232  2.31  0.  0.
233  2.32  0.  0.
234  2.33  0.  0.
235  2.34  0.  0.
236  2.35  0.  0.
237  2.36  0.  0.
238  2.37  0.  0.
239  2.38  0.  0.
240  2.39  0.  0.
241  2.40  0.  0.
242  2.41  0.  0.
243  2.42  0.  0.
244  2.43  0.  0.
245  2.44  0.  0.
246  2.45  0.  0.
247  2.46  0.  0.
248  2.47  0.  0.
249  2.48  0.  0.
250  2.49  0.  0.
251  2.50  0.  0.
252  2.51  0.  0.
253  2.52  0.  0.
254  2.53  0.  0.
255  2.54  0.  0.
256  2.55  0.  0.
257  2.56  0.  0.
258  2.57  0.  0.
259  2.58  0.  0.
260  2.59  0.  0.
261  2.60  0.  0.
262  2.61  0.  0.
263  2.62  0.  0.
264  2.63  0.  0.
265  2.64  0.  0.
266  2.65  0.  0.
267  2.66  0.  0.
268  2.67  0.  0.
269  2.68  0.  0.
270  2.69  0.  0.
271  2.70  0.  0.
272  2.71  0.  0.
273  2.72  0.  0.
274  2.73  0.  0.
275  2.74  0.  0.
276  2.75  0.  0.
277  2.76  0.  0.
278  2.77  0.  0.
279  2.78  0.  0.
280  2.79  0.  0.
281  2.80  0.  0.
282  2.81  0.  0.
283  2.82  0.  0.
284  2.83  0.  0.
285  2.84  0.  0.
286  2.85  0.  0.
287  2.86  0.  0.
288  2.87  0.  0.
289  2.88  0.  0.
290  2.89  0.  0.
291  2.90  0.  0.
292  2.91  0.  0.
293  2.92  0.  0.
294  2.93  0.  0.
295  2.94  0.  0.
296  2.95  0.  0.
297  2.96  0.  0.
298  2.97  0.  0.
299  2.98  0.  0.
300  2.99  0.  0.
301  3.00  0.  0.
302  3.01  0.  0.
303  3.02  0.  0.
304  3.03  0.  0.
305  3.04  0.  0.
306  3.05  0.  0.
307  3.06  0.  0.
308  3.07  0.  0.
309  3.08  0.  0.
310  3.09  0.  0.
311  3.10  0.  0.
312  3.11  0.  0.
313  3.12  0.  0.
314  3.13  0.  0.
315  3.14  0.  0.
316  3.15  0.  0.
317  3.16  0.  0.
318  3.17  0.  0.
319  3.18  0.  0.
320  3.19  0.  0.
321  3.20  0.  0.
322  3.21  0.  0.
323  3.22  0.  0.
324  3.23  0.  0.
325  3.24  0.  0.
326  3.25  0.  0.
327  3.26  0.  0.
328  3.27  0.  0.
329  3.28  0.  0.
330  3.29  0.  0.
331  3.30  0.  0.
332  3.31  0.  0.
333  3.32  0.  0.
334  3.33  0.  0.
335  3.34  0.  0.
336  3.35  0.  0.
337  3.36  0.  0.
338  3.37  0.  0.
339  3.38  0.  0.
340  3.39  0.  0.
341  3.40  0.  0.
342  3.41  0.  0.
343  3.42  0.  0.
344  3.43  0.  0.
345  3.44  0.  0.
346  3.45  0.  0.
347  3.46  0.  0.
348  3.47  0.  0.
349  3.48  0.  0.
350  3.49  0.  0.
351  3.50  0.  0.
352  3.51  0.  0.
353  3.52  0.  0.
354  3.53  0.  0.
355  3.54  0.  0.
356  3.55  0.  0.
357  3.56  0.  0.
358  3.57  0.  0.
359  3.58  0.  0.
360  3.59  0.  0.
361  3.60  0.  0.
362  3.61  0.  0.
363  3.62  0.  0.
364  3.63  0.  0.
365  3.64  0.  0.
366  3.65  0.  0.
367  3.66  0.  0.
368  3.67  0.  0.
369  3.68  0.  0.
370  3.69  0.  0.
371  3.70  0.  0.
372  3.71  0.  0.
373  3.72  0.  0.
374  3.73  0.  0.
375  3.74  0.  0.
376  3.75  0.  0.
377  3.76  0.  0.
378  3.77  0.  0.
379  3.78  0.  0.
380  3.79  0.  0.
381  3.80  0.  0.
382  3.81  0.  0.
383  3.82  0.  0.
384  3.83  0.  0.
385  3.84  0.  0.
386  3.85  0.  0.
387  3.86  0.  0.
388  3.87  0.  0.
389  3.88  0.  0.
390  3.89  0.  0.
391  3.90  0.  0.
392  3.91  0.  0.
393  3.92  0.  0.
394  3.93  0.  0.
395  3.94  0.  0.
396  3.95  0.  0.
397  3.96  0.  0.
398  3.97  0.  0.
399  3.98  0.  0.
400  3.99  0.  0.
401  4.00  0.  0.
402  4.01  0.  0.
403  4.02  0.  0.
404  4.03  0.  0.
405  4.04  0.  0.
406  4.05  0.  0.
407  4.06  0.  0.
408  4.07  0.  0.
409  4.08  0.  0.
410  4.09  0.  0.
411  4.10  0.  0.
412  4.11  0.  0.
413  4.12  0.  0.
414  4.13  0.  0.
415  4.14  0.  0.
416  4.15  0.  0.
417  4.16  0.  0.
418  4.17  0.  0.
419  4.18  0.  0.
420  4.19  0.  0.
421  4.20  0.  0.
422  4.21  0.  0.
423  4.22  0.  0.
424  4.23  0.  0.
425  4.24  0.  0.
426  4.25  0.  0.
427  4.26  0.  0.
428  4.27  0.  0.
429  4.28  0.  0.
430  4.29  0.  0.
431  4.30  0.  0.
432  4.31  0.  0.
433  4.32  0.  0.
434  4.33  0.  0.
435  4.34  0.  0.
436  4.35  0.  0.
437  4.36  0.  0.
438  4.37  0.  0.
439  4.38  0.  0.
440  4.39  0.  0.
441  4.40  0.  0.
442  4.41  0.  0.
443  4.42  0.  0.
444  4.43  0.  0.
445  4.44  0.  0.
446  4.45  0.  0.
447  4.46  0.  0.
448  4.47  0.  0.
449  4.48  0.  0.
450  4.49  0.  0.
451  4.50  0.  0.
452  4.51  0.  0.
453  4.52  0.  0.
454  4.53  0.  0.
455  4.54  0.  0.
456  4.55  0.  0.
457  4.56  0.  0.
458  4.57  0.  0.
459  4.58  0.  0.
460  4.59  0.  0.
461  4.60  0.  0.
462  4.61  0.  0.
463  4.62  0.  0.
464  4.63  0.  0.
465  4.64  0.  0.
466  4.65  0.  0.
467  4.66  0.  0.
468  4.67  0.  0.
469  4.68  0.  0.
470  4.69  0.  0.
471  4.70  0.  0.
472  4.71  0.  0.
473  4.72  0.  0.
474  4.73  0.  0.
475  4.74  0.  0.
476  4.75  0.  0.
477  4.76  0.  0.
478  4.77  0.  0.
479  4.78  0.  0.
480  4.79  0.  0.
481  4.80  0.  0.
482  4.81  0.  0.
483  4.82  0.  0.
484  4.83  0.  0.
485  4.84  0.  0.
486  4.85  0.  0.
487  4.86  0.  0.
488  4.87  0.  0.
489  4.88  0.  0.
490  4.89  0.  0.
491  4.90  0.  0.
492  4.91  0.  0.
493  4.92  0.  0.
494  4.93  0.  0.
495  4.94  0.  0.
496  4.95  0.  0.
497  4.96  0.  0.
498  4.97  0.  0.
499  4.98  0.  0.
500  4.99  0.  0.
501  5.00  0.  0.
502  5.01  0.  0.
503  5.02  0.  0.
504  5.03  0.  0.
505  5.04  0.  0.
506  5.05  0.  0.
507  5.06  0.  0.
508  5.07  0.  0.
509  5.08  0.  0.
510  5.09  0.  0.
511  5.10  0.  0.
512  5.11  0.  0.
513  5.12  0.  0.
514  5.13  0.  0.
515  5.14  0.  0.
516  5.15  0.  0.
517  5.16  0.  0.
518  5.17  0.  0.
519  5.18  0.  0.
520  5.19  0.  0.
521  5.20  0.  0.
522  5.21  0.  0.
523  5.22  0.  0.
524  5.23  0.  0.
525  5.24  0.  0.
526  5.25  0.  0.
527  5.26  0.  0.
528  5.27  0.  0.
529  5.28  0.  0.
530  5.29  0.  0.
531  5.30  0.  0.
532  5.31  0.  0.
533  5.32  0.  0.
534  5.33  0.  0.
535  5.34  0.  0.
536  5.35  0.  0.
537  5.36  0.  0.
538  5.37  0.  0.
539  5.38  0.  0.
540  5.39  0.  0.
541  5.40  0.  0.
542  5.41  0.  0.
543  5.42  0.  0.
544  5.43  0.  0.
545  5.44  0.  0.
546  5.45  0.  0.
547  5.46  0.  0.
548  5.47  0.  0.
549  5.48  0.  0.
550  5.49  0.  0.
551  5.50  0.  0.
552  5.51  0.  0.
553  5.52  0.  0.
554  5.53  0.  0.
555  5.54  0.  0.
556  5.55  0.  0.
557  5.56  0.  0.
558  5.57  0.  0.
559  5.58  0.  0.
560  5.59  0.  0.
561  5.60  0.  0.
562  5.61  0.  0.
563  5.62  0.  0.
564  5.63  0.  0.
565  5.64  0.  0.
566  5.65  0.  0.
567  5.66  0.  0.
568  5.67  0.  0.
569  5.68  0.  0.
570  5.69  0.  0.
571  5.70  0.  0.
572  5.71  0.  0.
573  5.72  0.  0.
574  5.73  0.  0.
575  5.74  0.  0.
576  5.75  0.  0.
577  5.76  0.  0.
578  5.77  0.  0.
579  5.78  0.  0.
580  5.79  0.  0.
581  5.80  0.  0.
582  5.81  0.  0.
583  5.82  0.  0.
584  5.83  0.  0.
585  5.84  0.  0.
586  5.85  0.  0.
587  5.86  0.  0.
588  5.87  0.  0.
589  5.88  0.  0.
590  5.89  0.  0.
591  5.90  0.  0.
592  5.91  0.  0.
593  5.92  0.  0.
594  5.93  0.  0.
595  5.94  0.  0.
596  5.95  0.  0.
597  5.96  0.  0.
598  5.97  0.  0.
599  5.98  0.  0.
600  5.99  0.  0.
1                         2.3754509818831E+00  5.1158659285290E-01
1  0.0000000000000E+00 -2.3563329612161E-08  2.4234013618757E-08
2  1.0000000000000E-02 -2.8535378987003E-04  5.6628491071632E-04
3  2.0000000000000E-02 -1.1176356718396E-03  2.2419114103438E-03
4  3.0000000000000E-02 -2.4261164945856E-03  4.9578077309177E-03
5  4.0000000000000E-02 -4.0949310512280E-03  8.6008825617227E-03
6  5.0000000000000E-02 -5.9660533311568E-03  1.3017016061382E-02
7  6.0000000000000E-02 -7.8433634109490E-03  1.8015145624036E-02
8  7.0000000000000E-02 -9.4977102273892E-03  2.3372347596485E-02
9  8.0000000000000E-02 -1.0672850912278E-02  2.8839791909197E-02
10  9.0000000000000E-02 -1.1092126534395E-02  3.4149425220601E-02
11  1.0000000000000E-01 -1.0465716467830E-02  3.9021220183382E-02
12  1.1000000000000E-01 -8.4982995947726E-03  4.3170814248060E-02
13  1.2000000000000E-01 -4.8969404804225E-03  4.6317351361296E-02
14  1.3000000000000E-01  6.2098723505189E-04  4.8191334237749E-02
15  1.4000000000000E-01  8.3200295546187E-03  4.8542293728441E-02
16  1.5000000000000E-01  1.8439219485599E-02  4.7146085215094E-02
17  1.6000000000000E-01  3.1185162469781E-02  4.3811629864109E-02
18  1.7000000000000E-01  4.6725808038690E-02  3.8386930806942E-02
19  1.8000000000000E-01  6.5185060663216E-02  3.0764210607409E-02
20  1.9000000000000E-01  8.6638363996699E-02  2.0884036368143E-02
21  2.0000000000000E-01  1.1110937077318E-01  8.7383220694383E-03
22  2.1000000000000E-01  1.3856778600656E-01 -5.6278763009510E-03
23  2.2000000000000E-01  1.6892844439270E-01 -2.2115829168335E-02
24  2.3000000000000E-01  2.0205165454492E-01 -4.0573892088950E-02
25  2.4000000000000E-01  2.3774481353141E-01 -6.0799551101851E-02
26  2.5000000000000E-01  2.7576526578938E-01 -8.2542720524487E-02
27  2.6000000000000E-01  3.1582435153268E-01 -1.0551022906381E-01
28  2.7000000000000E-01  3.5759256190612E-01 -1.2937140146132E-01
29  2.8000000000000E-01  4.0070569200928E-01 -1.5376461619165E-01
30  2.9000000000000E-01  4.4477185911576E-01 -1.7830469561848E-01
31  3.0000000000000E-01  4.8937923250223E-01 -2.0259096405184E-01
32  3.1000000000000E-01  5.3410430376451E-01 -2.2621579185241E-01
33  3.2000000000000E-01  5.7852051275058E-01 -2.4877343051333E-01
34  3.3000000000000E-01  6.2220703461454E-01 -2.6986893485424E-01
35  3.4000000000000E-01  6.6475752823395E-01 -2.8912696431761E-01
36  3.5000000000000E-01  7.0578864547873E-01 -3.0620025599681E-01
37  3.6000000000000E-01  7.4494810461835E-01 -3.2077756746935E-01
38  3.7000000000000E-01  7.8192213944782E-01 -3.3259089767183E-01
39  3.8000000000000E-01  8.1644214834300E-01 -3.4142180874018E-01
40  3.9000000000000E-01  8.4829038416648E-01 -3.4710669065126E-01
41  4.0000000000000E-01  8.7730454638665E-01 -3.4954083324380E-01
42  4.1000000000000E-01  9.0338116051096E-01 -3.4868119628078E-01
43  4.2000000000000E-01  9.2647765645780E-01 -3.4454779707665E-01
44  4.3000000000000E-01  9.4661308622497E-01 -3.3722366621812E-01
45  4.4000000000000E-01  9.6386745152603E-01 -3.2685335436971E-01
46  4.5000000000000E-01  9.7837964329164E-01 -3.1364000635092E-01
47  4.6000000000000E-01  9.9034402637768E-01 -2.9784105185226E-01
48  4.7000000000000E-01  1.0000057337838E+00 -2.7976259456989E-01
49  4.8000000000000E-01  1.0076547644673E+00 -2.5975261244047E-01
50  4.9000000000000E-01  1.0136190067666E+00 -2.3819311033466E-01
51  5.0000000000000E-01  1.0182563348812E+00 -2.1549139234741E-01
52  5.1000000000000E-01  1.0219459482128E+00 -1.9207064309548E-01
53  5.2000000000000E-01  1.0250791421232E+00 -1.6836002565665E-01
54  5.3000000000000E-01  1.0280497133670E+00 -1.4478451751024E-01
55  5.4000000000000E-01  1.0312442137481E+00 -1.2175471470587E-01
56  5.5000000000000E-01  1.0350322711662E+00 -9.9656838248669E-02
57  5.6000000000000E-01  1.0397571979932E+00 -7.8843175202547E-02
58  5.7000000000000E-01  1.0457271025967E+00 -5.9623180257012E-02
59  5.8000000000000E-01  1.0532067108556E+00 -4.2255451570511E-02
60  5.9000000000000E-01  1.0624100908486E+00 -2.6940777804630E-02
61  6.0000000000000E-01  1.0734944558013E+00 -1.3816431721682E-02
62  6.1000000000000E-01  1.0865551982118E+00 -2.9518599622633E-03
63  6.2000000000000E-01  1.1016222822969E+00  5.6541108232601E-03
64  6.3000000000000E-01  1.1186580930392E+00  1.2074463830653E-02
65  6.4000000000000E-01  1.1375568087873E+00  1.6453525185238E-02
66  6.5000000000000E-01  1.1581453312303E+00  1.9004824026905E-02
67  6.6000000000000E-01  1.1801857723469E+00  2.0007300747701E-02
68  6.7000000000000E-01  1.2033794633624E+00  1.9799921931995E-02
69  6.8000000000000E-01  1.2273724165930E+00  1.8774797143633E-02
70  6.9000000000000E-01  1.2517621380618E+00  1.7368927673291E-02
71  7.0000000000000E-01  1.2761056576814E+00  1.6054749909693E-02
72  7.1000000000000E-01  1.2999286153025E+00  1.5329665384028E-02
73  7.2000000000000E-01  1.3227352156796E+00  1.5704775069423E-02
74  7.3000000000000E-01  1.3440188439927E+00  1.7693056588525E-02
75  7.4000000000000E-01  1.3632731164780E+00  2.1797239074095E-02
76  7.5000000000000E-01  1.3800031283969E+00  2.8497641123786E-02
77  7.6000000000000E-01  1.3937366543013E+00  3.8240242291608E-02
78  7.7000000000000E-01  1.4040350535680E+00  5.1425257682732E-02
79  7.8000000000000E-01  1.4105036375494E+00  6.8396478412501E-02
80  7.9000000000000E-01  1.4128012634123E+00  8.9431628028899E-02
81  8.0000000000000E-01  1.4106489336742E+00  1.1473396668346E-01
82  8.1000000000000E-01  1.4038371993427E+00  1.4442535119587E-01
83  8.2000000000000E-01  1.3922321880562E+00  1.7854093064141E-01
84  8.3000000000000E-01  1.3757801062612E+00  2.1702562425461E-01
85  8.4000000000000E-01  1.3545100956700E+00  2.5973249194617E-01
86  8.5000000000000E-01  1.3285353583976E+00  3.0642306831723E-01
87  8.6000000000000E-01  1.2980525015636E+00  3.5676968954311E-01
88  8.7000000000000E-01  1.2633390900016E+00  4.1035979975652E-01
89  8.8000000000000E-01  1.2247494342466E+00  4.6670218049733E-01
90  8.9000000000000E-01  1.1827086793467E+00  5.2523500433427E-01
91  9.0000000000000E-01  1.1377052974395E+00  5.8533557282783E-01
92  9.1000000000000E-01  1.0902821226390E+00  6.4633156049007E-01
93  9.2000000000000E-01  1.0410260998083E+00  7.0751355116624E-01
94  9.3000000000000E-01  9.9055694851591E-01  7.6814862210921E-01
95  9.4000000000000E-01  9.3951496921785E-01  8.2749470466472E-01
96  9.5000000000000E-01  8.8854823988594E-01  8.8481542954854E-01
97  9.6000000000000E-01  8.3829946741583E-01  9.3939514970218E-01
98  9.7000000000000E-01  7.8939276879815E-01  9.9055382504831E-01
99  9.8000000000000E-01  7.4242066194665E-01  1.0376614514006E+00
100  9.9000000000000E-01  6.9793154508573E-01  1.0801517204325E+00
101  1.0000000000000E+00  6.5641793666477E-01  1.1175346089767E+00
102  1.0100000000000E+00  6.1830573497565E-01  1.1494076138423E+00
103  1.0200000000000E+00  5.8394473823345E-01  1.1754653724976E+00
104  1.0300000000000E+00  5.5360064214676E-01  1.1955074399555E+00
105  1.0400000000000E+00  5.2744870341077E-01  1.2094440274600E+00
106  1.0500000000000E+00  5.0556922470579E-01  1.2172995483652E+00
107  1.0600000000000E+00  4.8794498023747E-01  1.2192138602515E+00
108  1.0700000000000E+00  4.7446066142749E-01  1.2154411388746E+00
109  1.0800000000000E+00  4.6490438087553E-01  1.2063463680246E+00
110  1.0900000000000E+00  4.5897122985481E-01  1.1923994789916E+00
111  1.1000000000000E+00  4.5626884156386E-01  1.1741672227041E+00
112  1.1100000000000E+00  4.5632486966560E-01  1.1523029061388E+00
113  1.1200000000000E+00  4.5859625057431E-01  1.1275341708254E+00
114  1.1300000000000E+00  4.6248007906067E-01  1.1006490345786E+00
115  1.1400000000000E+00  4.6732589111345E-01  1.0724804567501E+00
116  1.1500000000000E+00  4.7244911622133E-01  1.0438897216603E+00
117  1.1600000000000E+00  4.7714543415912E-01  1.0157489635083E+00
118  1.1700000000000E+00  4.8070574946306E-01  9.8892317844894E-01
119  1.1800000000000E+00  4.8243148068849E-01  9.6425208500629E-01
120  1.1900000000000E+00  4.8164985152989E-01  9.4253220226811E-01
121  1.2000000000000E+00  4.7772886729571E-01  9.2449951607861E-01
122  1.2100000000000E+00  4.7009166318259E-01  9.1081309657076E-01
123  1.2200000000000E+00  4.5822992021953E-01  9.0204001605719E-01
124  1.2300000000000E+00  4.4171606060930E-01  8.9864189457004E-01
125  1.2400000000000E+00  4.2021395619724E-01  9.0096337162071E-01
126  1.2500000000000E+00  3.9348791132214E-01  9.0922276781395E-01
127  1.2600000000000E+00  3.6140971431919E-01  9.2350515884050E-01
128  1.2700000000000E+00  3.2396358924064E-01  9.4375803858152E-01
129  1.2800000000000E+00  2.8124892050672E-01  9.6978969808427E-01
130  1.2900000000000E+00  2.3348066754993E-01  1.0012703937981E+00
131  1.3000000000000E+00  1.8098743273172E-01  1.0377363232857E+00
132  1.3100000000000E+00  1.2420719318693E-01  1.0785963704672E+00
133  1.3200000000000E+00  6.3680755130313E-02  1.1231415260906E+00
134  1.3300000000000E+00  4.3035934472923E-05  1.1705568344333E+00
135  1.3400000000000E+00 -6.5987675610176E-02  1.2199356648789E+00
136  1.3500000000000E+00 -1.3362228785717E-01  1.2702960579482E+00
137  1.3600000000000E+00 -2.0201507185709E-01  1.3205988510349E+00
138  1.3700000000000E+00 -2.7027915755987E-01  1.3697672501315E+00
139  1.3800000000000E+00 -3.3750306501861E-01  1.4167074812439E+00
140  1.3900000000000E+00 -4.0276795125701E-01  1.4603301294381E+00
141  1.4000000000000E+00 -4.6516523622022E-01  1.4995717554679E+00
142  1.4100000000000E+00 -5.2381426059468E-01  1.5334163698578E+00
143  1.4200000000000E+00 -5.7787962462435E-01  1.5609163425511E+00
144  1.4300000000000E+00 -6.2658786038418E-01  1.5812123327527E+00
145  1.4400000000000E+00 -6.6924310046205E-01  1.5935518385796E+00
146  1.4500000000000E+00 -7.0524142325922E-01  1.5973059890474E+00
147  1.4600000000000E+00 -7.3408357898113E-01  1.5919842315708E+00
148  1.4700000000000E+00 -7.5538583036713E-01  1.5772466059204E+00
149  1.4800000000000E+00 -7.6888867773247E-01  1.5529133397582E+00
150  1.4900000000000E+00 -7.7446327813961E-01  1.5189715504675E+00
151  1.5000000000000E+00 -7.7211541312226E-01  1.4755788925728E+00
152  1.5100000000000E+00 -7.6198690682625E-01  1.4230640477608E+00
153  1.5200000000000E+00 -7.4435444632489E-01  1.3619240149322E+00
154  1.5300000000000E+00 -7.1962580692512E-01  1.2928182192890E+00
155  1.5400000000000E+00 -6.8833353656278E-01  1.2165595210761E+00
156  1.5500000000000E+00 -6.5112620384129E-01  1.1341022650199E+00
157  1.5600000000000E+00 -6.0875736291550E-01  1.0465275695646E+00
158  1.5700000000000E+00 -5.6207243416257E-01  9.5502610942149E-01
159  1.5800000000000E+00 -5.1199374164263E-01  8.6087869482846E-01
160  1.5900000000000E+00 -4.5950398580394E-01  7.6543499513773E-01
161  1.6000000000000E+00 -4.0562845101168E-01  6.7009077526986E-01
162  1.6100000000000E+00 -3.5141639217403E-01  5.7626421835227E-01
163  1.6200000000000E+00 -2.9792150869274E-01  4.8537104590045E-01
164  1.6300000000000E+00 -2.4618310447252E-01  3.9880054456914E-01