Si    ONCVPSP-4.0.1  r_core=   1.60630   1.71555   1.91059
14.0000      4.0000      241227    zatom,zion,pspd
8      11   2     4   600     0    pspcod,pspxc,lmax,lloc,mmax,r2well
5.99000000  1.19820000  0.00000000    rchrg fchrg qchrg
2     2     2     0     0    nproj
1     1           extension_switch
0                         5.0019687308063E+00  7.5270913571611E-01
1  0.0000000000000E+00  2.1591904944551E-08 -4.8305704936080E-08
2  1.0000000000000E-02  7.3905787415027E-03  4.9829179742553E-02
3  2.0000000000000E-02  1.5241849716698E-02  9.8625528257359E-02
4  3.0000000000000E-02  2.4003495400335E-02  1.4538038885288E-01
5  4.0000000000000E-02  3.4103431303639E-02  1.8913289348912E-01
6  5.0000000000000E-02  4.5937548165760E-02  2.2899246883663E-01
7  6.0000000000000E-02  5.9860189085041E-02  2.6415971192683E-01
8  7.0000000000000E-02  7.6175580503284E-02  2.9394515025442E-01
9  8.0000000000000E-02  9.5130414364252E-02  3.1778544949811E-01
10  9.0000000000000E-02  1.1690775269696E-01  3.3525669033835E-01
11  1.0000000000000E-01  1.4162239590766E-01  3.4608440285660E-01
12  1.1000000000000E-01  1.6931782287201E-01  3.5015012119264E-01
13  1.2000000000000E-01  1.9996477524373E-01  3.4749430084187E-01
14  1.3000000000000E-01  2.3346152103682E-01  3.3831552439617E-01
15  1.4000000000000E-01  2.6963579433311E-01  3.2296600678683E-01
16  1.5000000000000E-01  3.0824836977210E-01  3.0194349624905E-01
17  1.6000000000000E-01  3.4899819315532E-01  2.7587975036589E-01
18  1.7000000000000E-01  3.9152895388156E-01  2.4552584578090E-01
19  1.8000000000000E-01  4.3543695182650E-01  2.1173465369042E-01
20  1.9000000000000E-01  4.8028008143897E-01  1.7544087936200E-01
21  2.0000000000000E-01  5.2558772992330E-01  1.3763912116136E-01
22  2.1000000000000E-01  5.7087136500346E-01  9.9360451587023E-02
23  2.2000000000000E-01  6.1563557141115E-01  6.1648058519277E-02
24  2.3000000000000E-01  6.5938928428622E-01  2.5532508447246E-02
25  2.4000000000000E-01  7.0165696238339E-01 -7.9927957257408E-03
26  2.5000000000000E-01  7.4198944448048E-01 -3.7995391867502E-02
27  2.6000000000000E-01  7.7997423868368E-01 -6.3626215533141E-02
28  2.7000000000000E-01  8.1524500630333E-01 -8.4140209227709E-02
29  2.8000000000000E-01  8.4749001937678E-01 -9.8914596628404E-02
30  2.9000000000000E-01  8.7645939337284E-01 -1.0746438564310E-01
31  3.0000000000000E-01  9.0197092363688E-01 -1.0945472559849E-01
32  3.1000000000000E-01  9.2391438513969E-01 -1.0470981407854E-01
33  3.2000000000000E-01  9.4225418939492E-01 -9.3218126424598E-02
34  3.3000000000000E-01  9.5703032925483E-01 -7.5133823948593E-02
35  3.4000000000000E-01  9.6835758086652E-01 -5.0774283653225E-02
36  3.5000000000000E-01  9.7642297151419E-01 -2.0613780761765E-02
37  3.6000000000000E-01  9.8148156150887E-01  1.4726556350437E-02
38  3.7000000000000E-01  9.8385062683217E-01  5.4492313148666E-02
39  3.8000000000000E-01  9.8390236602922E-01  9.7812590256170E-02
40  3.9000000000000E-01  9.8205528904750E-01  1.4371967559274E-01
41  4.0000000000000E-01  9.7876447655548E-01  1.9117115568798E-01
42  4.1000000000000E-01  9.7451092504296E-01  2.3907397571628E-01
43  4.2000000000000E-01  9.6979021508479E-01  2.8630990970488E-01
44  4.3000000000000E-01  9.6510075702490E-01  3.3176186612513E-01
45  4.4000000000000E-01  9.6093187960366E-01  3.7434043057550E-01
46  4.5000000000000E-01  9.5775203242697E-01  4.1301003710781E-01
47  4.6000000000000E-01  9.5599737250814E-01  4.4681416325067E-01
48  4.7000000000000E-01  9.5606099838306E-01  4.7489896095288E-01
49  4.8000000000000E-01  9.5828308262161E-01  4.9653476621397E-01
50  4.9000000000000E-01  9.6294213517972E-01  5.1113497349407E-01
51  5.0000000000000E-01  9.7024760633082E-01  5.1827181622222E-01
52  5.1000000000000E-01  9.8033400937891E-01  5.1768866069941E-01
53  5.2000000000000E-01  9.9325671058899E-01  5.0930849602596E-01
54  5.3000000000000E-01  1.0089894974768E+00  4.9323838575842E-01
55  5.4000000000000E-01  1.0274239975602E+00  4.6976973602683E-01
56  5.5000000000000E-01  1.0483709787351E+00  4.3937432787848E-01
57  5.6000000000000E-01  1.0715635204981E+00  4.0269615662312E-01
58  5.7000000000000E-01  1.0966620032110E+00  3.6053921583668E-01
59  5.8000000000000E-01  1.1232608214246E+00  3.1385145632992E-01
60  5.9000000000000E-01  1.1508966878645E+00  2.6370523872984E-01
61  6.0000000000000E-01  1.1790583579078E+00  2.1127468036227E-01
62  6.1000000000000E-01  1.2071975710918E+00  1.5781037099441E-01
63  6.2000000000000E-01  1.2347409771323E+00  1.0461199599515E-01
64  6.3000000000000E-01  1.2611027897812E+00  5.2999458099657E-02
65  6.4000000000000E-01  1.2856978931779E+00  4.2831289671386E-03
66  6.5000000000000E-01  1.3079551125994E+00 -4.0266111896741E-02
67  6.6000000000000E-01  1.3273303550206E+00 -7.9446381212746E-02
68  6.7000000000000E-01  1.3433193248388E+00 -1.1215317199563E-01
69  6.8000000000000E-01  1.3554695265641E+00 -1.3740596002987E-01
70  6.9000000000000E-01  1.3633912791132E+00 -1.5437241910591E-01
71  7.0000000000000E-01  1.3667674853654E+00 -1.6238967325700E-01
72  7.1000000000000E-01  1.3653619254555E+00 -1.6098207319400E-01
73  7.2000000000000E-01  1.3590258724092E+00 -1.4987505498647E-01
74  7.3000000000000E-01  1.3477028635413E+00 -1.2900472033547E-01
75  7.4000000000000E-01  1.3314314998330E+00 -9.8522867853968E-02
76  7.5000000000000E-01  1.3103461874448E+00 -5.8797301711114E-02
77  7.6000000000000E-01  1.2846757797393E+00 -1.0407345768864E-02
78  7.7000000000000E-01  1.2547401237249E+00  4.5865404238083E-02
79  7.8000000000000E-01  1.2209445607166E+00  1.0905095310654E-01
80  7.9000000000000E-01  1.1837724762437E+00  1.7800916283328E-01
81  8.0000000000000E-01  1.1437760378328E+00  2.5145205441136E-01
82  8.1000000000000E-01  1.1015653003006E+00  3.2796972311485E-01
83  8.2000000000000E-01  1.0577958956866E+00  4.0605935151351E-01
84  8.3000000000000E-01  1.0131555581115E+00  4.8415673061895E-01
85  8.4000000000000E-01  9.6834976189809E-01  5.6066963770264E-01
86  8.5000000000000E-01  9.2408677360098E-01  6.3401237089289E-01
87  8.6000000000000E-01  8.8106243461386E-01  7.0264070682646E-01
88  8.7000000000000E-01  8.3994500037892E-01  7.6508652926928E-01
89  8.8000000000000E-01  8.0136036463585E-01  8.1999137427391E-01
90  8.9000000000000E-01  7.6587799252096E-01  8.6613815130993E-01
91  9.0000000000000E-01  7.3399787469068E-01  9.0248032974828E-01
92  9.1000000000000E-01  7.0613879619418E-01  9.2816792560795E-01
93  9.2000000000000E-01  6.8262818889192E-01  9.4256968375808E-01
94  9.3000000000000E-01  6.6369380528718E-01  9.4529092466818E-01
95  9.4000000000000E-01  6.4945741532906E-01  9.3618661083450E-01
96  9.5000000000000E-01  6.3993068676657E-01  9.1536928451069E-01
97  9.6000000000000E-01  6.3501336484409E-01  8.8321163331829E-01
98  9.7000000000000E-01  6.3449381943456E-01  8.4034355159394E-01
99  9.8000000000000E-01  6.3805197810500E-01  7.8764368062165E-01
100  9.9000000000000E-01  6.4526461315393E-01  7.2622552775603E-01
101  1.0000000000000E+00  6.5561290037638E-01  6.5741838049185E-01
102  1.0100000000000E+00  6.6849211831786E-01  5.8274334419636E-01
103  1.0200000000000E+00  6.8322331010697E-01  5.0388493911488E-01
104  1.0300000000000E+00  6.9906668658290E-01  4.2265879114707E-01
105  1.0400000000000E+00  7.1523651034780E-01  3.4097603950739E-01
106  1.0500000000000E+00  7.3091716643763E-01  2.6080516076294E-01
107  1.0600000000000E+00  7.4528009721272E-01  1.8413197131099E-01
108  1.0700000000000E+00  7.5750125754993E-01  1.1291861746816E-01
109  1.0800000000000E+00  7.6677873191102E-01  4.9062393027324E-02
110  1.0900000000000E+00  7.7235014775338E-01 -5.6447624697863E-03
111  1.1000000000000E+00  7.7350952023957E-01 -4.9555235787589E-02
112  1.1100000000000E+00  7.6962317135828E-01 -8.1202355531929E-02
113  1.1200000000000E+00  7.6014438223132E-01 -9.9333863798320E-02
114  1.1300000000000E+00  7.4462646034805E-01 -1.0294151292537E-01
115  1.1400000000000E+00  7.2273393323073E-01 -9.1286128340134E-02
116  1.1500000000000E+00  6.9425161610874E-01 -6.3917564959020E-02
117  1.1600000000000E+00  6.5909134274560E-01 -2.0689083614831E-02
118  1.1700000000000E+00  6.1729619496504E-01  3.8234216032817E-02
119  1.1800000000000E+00  5.6904211642803E-01  1.1237315158070E-01
120  1.1900000000000E+00  5.1463684930729E-01  2.0093852350067E-01
121  1.2000000000000E+00  4.5451618683214E-01  3.0284148338013E-01
122  1.2100000000000E+00  3.8923759014017E-01  4.1671006811008E-01
123  1.2200000000000E+00  3.1947127219078E-01  5.4091163661003E-01
124  1.2300000000000E+00  2.4598890451664E-01  6.7358082231097E-01
125  1.2400000000000E+00  1.6965015264931E-01  8.1265249848887E-01
126  1.2500000000000E+00  9.1387292060239E-02  9.5589914717880E-01
127  1.2600000000000E+00  1.2188197990141E-02  1.1009719267750E+00
128  1.2700000000000E+00 -6.6921962052828E-02  1.2454446523413E+00
129  1.2800000000000E+00 -1.4489997526837E-01  1.3868598365819E+00
130  1.2900000000000E+00 -2.2070439019420E-01  1.5227758901637E+00
131  1.3000000000000E+00 -2.9331548900379E-01  1.6508145491675E+00
132  1.3100000000000E+00 -3.6175502516834E-01  1.7687075849885E+00
133  1.3200000000000E+00 -4.2510532808217E-01  1.8743418588371E+00
134  1.3300000000000E+00 -4.8252738634274E-01  1.9658018089885E+00
135  1.3400000000000E+00 -5.3327753934806E-01  2.0414085033380E+00
136  1.3500000000000E+00 -5.7672243265391E-01  2.0997544524552E+00
137  1.3600000000000E+00 -6.1235192540494E-01  2.1397334574693E+00
138  1.3700000000000E+00 -6.3978967763153E-01  2.1605648616069E+00
139  1.3800000000000E+00 -6.5880119022496E-01  2.1618116815225E+00
140  1.3900000000000E+00 -6.6929912062108E-01  2.1433922139002E+00
141  1.4000000000000E+00 -6.7134575101211E-01  2.1055848403161E+00
142  1.4100000000000E+00 -6.6515254254132E-01  2.0490258873429E+00
143  1.4200000000000E+00 -6.5107676727093E-01  1.9747005366514E+00
144  1.4300000000000E+00 -6.2961526815792E-01  1.8839269176883E+00
145  1.4400000000000E+00 -6.0139545550588E-01  1.7783336526401E+00
146  1.4500000000000E+00 -5.6716370403879E-01  1.6598312543299E+00
147  1.4600000000000E+00 -5.2777136766695E-01  1.5305779019882E+00
148  1.4700000000000E+00 -4.8415867763338E-01  1.3929402338541E+00
149  1.4800000000000E+00 -4.3733683313925E-01  1.2494498971990E+00
150  1.4900000000000E+00 -3.8836863080245E-01  1.1027566834177E+00
151  1.5000000000000E+00 -3.3834801200182E-01  9.5557915070648E-01
152  1.5100000000000E+00 -2.8837890454167E-01  8.1065364564407E-01
153  1.5200000000000E+00 -2.3955388655386E-01  6.7068290774871E-01
154  1.5300000000000E+00 -1.9293213601905E-01  5.3828359063351E-01
155  1.5400000000000E+00 -1.4951656110576E-01  4.1593294209706E-01
156  1.5500000000000E+00 -1.1024255379914E-01  3.0593611490853E-01
157  1.5600000000000E+00 -7.5954828166093E-02  2.1037360796132E-01
158  1.5700000000000E+00 -4.7389019279084E-02  1.3105833943743E-01
159  1.5800000000000E+00 -2.5162419513669E-02  6.9515120115043E-02
160  1.5900000000000E+00 -9.7027238933833E-03  2.6788248626180E-02
161  1.6000000000000E+00 -1.5771383506698E-03  4.3532427154477E-03
162  1.6100000000000E+00  1.6745297734498E-04 -4.6215617167647E-04
163  1.6200000000000E+00 -5.0381277597509E-05  1.3904076981879E-04
164  1.63  0. -0.
165  1.64  0. -0.
166  1.65  0.  0.
167  1.66  0.  0.
168  1.67  0.  0.
169  1.68  0.  0.
170  1.69  0.  0.
171  1.70  0.  0.
172  1.71  0.  0.
173  1.72  0.  0.
174  1.73  0.  0.
175  1.74  0.  0.
176  1.75  0.  0.
177  1.76  0.  0.
178  1.77  0.  0.
179  1.78  0.  0.
180  1.79  0.  0.
181  1.80  0.  0.
182  1.81  0.  0.
183  1.82  0.  0.
184  1.83  0.  0.
185  1.84  0.  0.
186  1.85  0.  0.
187  1.86  0.  0.
188  1.87  0.  0.
189  1.88  0.  0.
190  1.89  0.  0.
191  1.90  0.  0.
192  1.91  0.  0.
193  1.92  0.  0.
194  1.93  0.  0.
195  1.94  0.  0.
196  1.95  0.  0.
197  1.96  0.  0.
198  1.97  0.  0.
199  1.98  0.  0.
200  1.99  0.  0.
201  2.00  0.  0.
202  2.01  0.  0.
203  2.02  0.  0.
204  2.03  0.  0.
205  2.04  0.  0.
206  2.05  0.  0.
207  2.06  0.  0.
208  2.07  0.  0.
209  2.08  0.  0.
210  2.09  0.  0.
211  2.10  0.  0.
212  2.11  0.  0.
213  2.12  0.  0.
214  2.13  0.  0.
215  2.14  0.  0.
216  2.15  0.  0.
217  2.16  0.  0.
218  2.17  0.  0.
219  2.18  0.  0.
220  2.19  0.  0.
221  2.20  0.  0.
222  2.21  0.  0.
223  2.22  0.  0.
224  2.23  0.  0.
225  2.24  0.  0.
226  2.25  0.  0.
227  2.26  0.  0.
228  2.27  0.  0.
229  2.28  0.  0.
230  2.29  0.  0.
231  2.30  0.  0.
232  2.31  0.  0.
233  2.32  0.  0.
234  2.33  0.  0.
235  2.34  0.  0.
236  2.35  0.  0.
237  2.36  0.  0.
238  2.37  0.  0.
239  2.38  0.  0.
240  2.39  0.  0.
241  2.40  0.  0.
242  2.41  0.  0.
243  2.42  0.  0.
244  2.43  0.  0.
245  2.44  0.  0.
246  2.45  0.  0.
247  2.46  0.  0.
248  2.47  0.  0.
249  2.48  0.  0.
250  2.49  0.  0.
251  2.50  0.  0.
252  2.51  0.  0.
253  2.52  0.  0.
254  2.53  0.  0.
255  2.54  0.  0.
256  2.55  0.  0.
257  2.56  0.  0.
258  2.57  0.  0.
259  2.58  0.  0.
260  2.59  0.  0.
261  2.60  0.  0.
262  2.61  0.  0.
263  2.62  0.  0.
264  2.63  0.  0.
265  2.64  0.  0.
266  2.65  0.  0.
267  2.66  0.  0.
268  2.67  0.  0.
269  2.68  0.  0.
270  2.69  0.  0.
271  2.70  0.  0.
272  2.71  0.  0.
273  2.72  0.  0.
274  2.73  0.  0.
275  2.74  0.  0.
276  2.75  0.  0.
277  2.76  0.  0.
278  2.77  0.  0.
279  2.78  0.  0.
280  2.79  0.  0.
281  2.80  0.  0.
282  2.81  0.  0.
283  2.82  0.  0.
284  2.83  0.  0.
285  2.84  0.  0.
286  2.85  0.  0.
287  2.86  0.  0.
288  2.87  0.  0.
289  2.88  0.  0.
290  2.89  0.  0.
291  2.90  0.  0.
292  2.91  0.  0.
293  2.92  0.  0.
294  2.93  0.  0.
295  2.94  0.  0.
296  2.95  0.  0.
297  2.96  0.  0.
298  2.97  0.  0.
299  2.98  0.  0.
300  2.99  0.  0.
301  3.00  0.  0.
302  3.01  0.  0.
303  3.02  0.  0.
304  3.03  0.  0.
305  3.04  0.  0.
306  3.05  0.  0.
307  3.06  0.  0.
308  3.07  0.  0.
309  3.08  0.  0.
310  3.09  0.  0.
311  3.10  0.  0.
312  3.11  0.  0.
313  3.12  0.  0.
314  3.13  0.  0.
315  3.14  0.  0.
316  3.15  0.  0.
317  3.16  0.  0.
318  3.17  0.  0.
319  3.18  0.  0.
320  3.19  0.  0.
321  3.20  0.  0.
322  3.21  0.  0.
323  3.22  0.  0.
324  3.23  0.  0.
325  3.24  0.  0.
326  3.25  0.  0.
327  3.26  0.  0.
328  3.27  0.  0.
329  3.28  0.  0.
330  3.29  0.  0.
331  3.30  0.  0.
332  3.31  0.  0.
333  3.32  0.  0.
334  3.33  0.  0.
335  3.34  0.  0.
336  3.35  0.  0.
337  3.36  0.  0.
338  3.37  0.  0.
339  3.38  0.  0.
340  3.39  0.  0.
341  3.40  0.  0.
342  3.41  0.  0.
343  3.42  0.  0.
344  3.43  0.  0.
345  3.44  0.  0.
346  3.45  0.  0.
347  3.46  0.  0.
348  3.47  0.  0.
349  3.48  0.  0.
350  3.49  0.  0.
351  3.50  0.  0.
352  3.51  0.  0.
353  3.52  0.  0.
354  3.53  0.  0.
355  3.54  0.  0.
356  3.55  0.  0.
357  3.56  0.  0.
358  3.57  0.  0.
359  3.58  0.  0.
360  3.59  0.  0.
361  3.60  0.  0.
362  3.61  0.  0.
363  3.62  0.  0.
364  3.63  0.  0.
365  3.64  0.  0.
366  3.65  0.  0.
367  3.66  0.  0.
368  3.67  0.  0.
369  3.68  0.  0.
370  3.69  0.  0.
371  3.70  0.  0.
372  3.71  0.  0.
373  3.72  0.  0.
374  3.73  0.  0.
375  3.74  0.  0.
376  3.75  0.  0.
377  3.76  0.  0.
378  3.77  0.  0.
379  3.78  0.  0.
380  3.79  0.  0.
381  3.80  0.  0.
382  3.81  0.  0.
383  3.82  0.  0.
384  3.83  0.  0.
385  3.84  0.  0.
386  3.85  0.  0.
387  3.86  0.  0.
388  3.87  0.  0.
389  3.88  0.  0.
390  3.89  0.  0.
391  3.90  0.  0.
392  3.91  0.  0.
393  3.92  0.  0.
394  3.93  0.  0.
395  3.94  0.  0.
396  3.95  0.  0.
397  3.96  0.  0.
398  3.97  0.  0.
399  3.98  0.  0.
400  3.99  0.  0.
401  4.00  0.  0.
402  4.01  0.  0.
403  4.02  0.  0.
404  4.03  0.  0.
405  4.04  0.  0.
406  4.05  0.  0.
407  4.06  0.  0.
408  4.07  0.  0.
409  4.08  0.  0.
410  4.09  0.  0.
411  4.10  0.  0.
412  4.11  0.  0.
413  4.12  0.  0.
414  4.13  0.  0.
415  4.14  0.  0.
416  4.15  0.  0.
417  4.16  0.  0.
418  4.17  0.  0.
419  4.18  0.  0.
420  4.19  0.  0.
421  4.20  0.  0.
422  4.21  0.  0.
423  4.22  0.  0.
424  4.23  0.  0.
425  4.24  0.  0.
426  4.25  0.  0.
427  4.26  0.  0.
428  4.27  0.  0.
429  4.28  0.  0.
430  4.29  0.  0.
431  4.30  0.  0.
432  4.31  0.  0.
433  4.32  0.  0.
434  4.33  0.  0.
435  4.34  0.  0.
436  4.35  0.  0.
437  4.36  0.  0.
438  4.37  0.  0.
439  4.38  0.  0.
440  4.39  0.  0.
441  4.40  0.  0.
442  4.41  0.  0.
443  4.42  0.  0.
444  4.43  0.  0.
445  4.44  0.  0.
446  4.45  0.  0.
447  4.46  0.  0.
448  4.47  0.  0.
449  4.48  0.  0.
450  4.49  0.  0.
451  4.50  0.  0.
452  4.51  0.  0.
453  4.52  0.  0.
454  4.53  0.  0.
455  4.54  0.  0.
456  4.55  0.  0.
457  4.56  0.  0.
458  4.57  0.  0.
459  4.58  0.  0.
460  4.59  0.  0.
461  4.60  0.  0.
462  4.61  0.  0.
463  4.62  0.  0.
464  4.63  0.  0.
465  4.64  0.  0.
466  4.65  0.  0.
467  4.66  0.  0.
468  4.67  0.  0.
469  4.68  0.  0.
470  4.69  0.  0.
471  4.70  0.  0.
472  4.71  0.  0.
473  4.72  0.  0.
474  4.73  0.  0.
475  4.74  0.  0.
476  4.75  0.  0.
477  4.76  0.  0.
478  4.77  0.  0.
479  4.78  0.  0.
480  4.79  0.  0.
481  4.80  0.  0.
482  4.81  0.  0.
483  4.82  0.  0.
484  4.83  0.  0.
485  4.84  0.  0.
486  4.85  0.  0.
487  4.86  0.  0.
488  4.87  0.  0.
489  4.88  0.  0.
490  4.89  0.  0.
491  4.90  0.  0.
492  4.91  0.  0.
493  4.92  0.  0.
494  4.93  0.  0.
495  4.94  0.  0.
496  4.95  0.  0.
497  4.96  0.  0.
498  4.97  0.  0.
499  4.98  0.  0.
500  4.99  0.  0.
501  5.00  0.  0.
502  5.01  0.  0.
503  5.02  0.  0.
504  5.03  0.  0.
505  5.04  0.  0.
506  5.05  0.  0.
507  5.06  0.  0.
508  5.07  0.  0.
509  5.08  0.  0.
510  5.09  0.  0.
511  5.10  0.  0.
512  5.11  0.  0.
513  5.12  0.  0.
514  5.13  0.  0.
515  5.14  0.  0.
516  5.15  0.  0.
517  5.16  0.  0.
518  5.17  0.  0.
519  5.18  0.  0.
520  5.19  0.  0.
521  5.20  0.  0.
522  5.21  0.  0.
523  5.22  0.  0.
524  5.23  0.  0.
525  5.24  0.  0.
526  5.25  0.  0.
527  5.26  0.  0.
528  5.27  0.  0.
529  5.28  0.  0.
530  5.29  0.  0.
531  5.30  0.  0.
532  5.31  0.  0.
533  5.32  0.  0.
534  5.33  0.  0.
535  5.34  0.  0.
536  5.35  0.  0.
537  5.36  0.  0.
538  5.37  0.  0.
539  5.38  0.  0.
540  5.39  0.  0.
541  5.40  0.  0.
542  5.41  0.  0.
543  5.42  0.  0.
544  5.43  0.  0.
545  5.44  0.  0.
546  5.45  0.  0.
547  5.46  0.  0.
548  5.47  0.  0.
549  5.48  0.  0.
550  5.49  0.  0.
551  5.50  0.  0.
552  5.51  0.  0.
553  5.52  0.  0.
554  5.53  0.  0.
555  5.54  0.  0.
556  5.55  0.  0.
557  5.56  0.  0.
558  5.57  0.  0.
559  5.58  0.  0.
560  5.59  0.  0.
561  5.60  0.  0.
562  5.61  0.  0.
563  5.62  0.  0.
564  5.63  0.  0.
565  5.64  0.  0.
566  5.65  0.  0.
567  5.66  0.  0.
568  5.67  0.  0.
569  5.68  0.  0.
570  5.69  0.  0.
571  5.70  0.  0.
572  5.71  0.  0.
573  5.72  0.  0.
574  5.73  0.  0.
575  5.74  0.  0.
576  5.75  0.  0.
577  5.76  0.  0.
578  5.77  0.  0.
579  5.78  0.  0.
580  5.79  0.  0.
581  5.80  0.  0.
582  5.81  0.  0.
583  5.82  0.  0.
584  5.83  0.  0.
585  5.84  0.  0.
586  5.85  0.  0.
587  5.86  0.  0.
588  5.87  0.  0.
589  5.88  0.  0.
590  5.89  0.  0.
591  5.90  0.  0.
592  5.91  0.  0.
593  5.92  0.  0.
594  5.93  0.  0.
595  5.94  0.  0.
596  5.95  0.  0.
597  5.96  0.  0.
598  5.97  0.  0.
599  5.98  0.  0.
600  5.99  0.  0.
1                         2.6897272865941E+00  6.2838555430388E-01
1  0.0000000000000E+00  6.1580519683524E-08  4.8892402487732E-08
2  1.0000000000000E-02  1.9613261091036E-03  1.8742673706410E-03
3  2.0000000000000E-02  7.7809167359094E-03  7.4474251894563E-03
4  3.0000000000000E-02  1.7267204980094E-02  1.6571789203205E-02
5  4.0000000000000E-02  3.0106195913008E-02  2.9005351269264E-02
6  5.0000000000000E-02  4.5869261277283E-02  4.4417874138266E-02
7  6.0000000000000E-02  6.4023794804771E-02  6.2399219343197E-02
8  7.0000000000000E-02  8.3946477949897E-02  8.2469709086818E-02
9  8.0000000000000E-02  1.0493884425495E-01  1.0409227412684E-01
10  9.0000000000000E-02  1.2624477610625E-01  1.2668609651246E-01
11  1.0000000000000E-01  1.4706952155593E-01  1.4964141963244E-01
12  1.1000000000000E-01  1.6659978223597E-01  1.7233516924696E-01
13  1.2000000000000E-01  1.8402439703046E-01  1.9414700867313E-01
14  1.3000000000000E-01  1.9855513071801E-01  2.1447543956885E-01
15  1.4000000000000E-01  2.0944707262394E-01  2.3275355710492E-01
16  1.5000000000000E-01  2.1601815755167E-01  2.4846407481577E-01
17  1.6000000000000E-01  2.1766733975755E-01  2.6115324995166E-01
18  1.7000000000000E-01  2.1389098010327E-01  2.7044336439051E-01
19  1.8000000000000E-01  2.0429704612565E-01  2.7604344857508E-01
20  1.9000000000000E-01  1.8861677373697E-01  2.7775797580407E-01
21  2.0000000000000E-01  1.6671349652531E-01  2.7549330063324E-01
22  2.1000000000000E-01  1.3858841289019E-01  2.6926166709182E-01
23  2.2000000000000E-01  1.0438313108959E-01  2.5918266871807E-01
24  2.3000000000000E-01  6.4378906123772E-02  2.4548210178820E-01
25  2.4000000000000E-01  1.8992558578314E-02  2.2848821420512E-01
26  2.5000000000000E-01 -3.1230857626251E-02  2.0862541392910E-01
27  2.6000000000000E-01 -8.5628495918962E-02  1.8640556116287E-01
28  2.7000000000000E-01 -1.4343305066104E-01  1.6241702635567E-01
29  2.8000000000000E-01 -2.0378869971442E-01  1.3731175012225E-01
30  2.9000000000000E-01 -2.6576930978023E-01  1.1179059012169E-01
31  3.0000000000000E-01 -3.2839850350126E-01  8.6587282652364E-02
32  3.1000000000000E-01 -3.9067114132716E-01  6.2451382176585E-02
33  3.2000000000000E-01 -4.5157573502749E-01  4.0130569330562E-02
34  3.3000000000000E-01 -5.1011728437930E-01  2.0352736522671E-02
35  3.4000000000000E-01 -5.6534001458765E-01  3.8082694898072E-03
36  3.5000000000000E-01 -6.1634948980266E-01 -8.8670571102290E-03
37  3.6000000000000E-01 -6.6233358779804E-01 -1.7108161906761E-02
38  3.7000000000000E-01 -7.0258184232966E-01 -2.0435328044757E-02
39  3.8000000000000E-01 -7.3650269249246E-01 -1.8467103138707E-02
40  3.9000000000000E-01 -7.6363822187579E-01 -1.0931104666631E-02
41  4.0000000000000E-01 -7.8367602357811E-01  2.3275477181158E-03
42  4.1000000000000E-01 -7.9645788905138E-01  2.1340399916070E-02
43  4.2000000000000E-01 -8.0198508797671E-01  4.6012600858924E-02
44  4.3000000000000E-01 -8.0042008142564E-01  7.6122717749985E-02
45  4.4000000000000E-01 -7.9208458979793E-01  1.1132547230879E-01
46  4.5000000000000E-01 -7.7745401870439E-01  1.5115737484123E-01
47  4.6000000000000E-01 -7.5714832827544E-01  1.9504516637656E-01
48  4.7000000000000E-01 -7.3191951248816E-01  2.4231691387319E-01
49  4.8000000000000E-01 -7.0263593319854E-01  2.9221554107766E-01
50  4.9000000000000E-01 -6.7026382687622E-01  3.4391451945819E-01
51  5.0000000000000E-01 -6.3584636889599E-01  3.9653539107232E-01
52  5.1000000000000E-01 -6.0048073910375E-01  4.4916674950283E-01
53  5.2000000000000E-01 -5.6529368187229E-01  5.0088426719865E-01
54  5.3000000000000E-01 -5.3141609281642E-01  5.5077132861243E-01
55  5.4000000000000E-01 -4.9995719179773E-01  5.9793980917081E-01
56  5.5000000000000E-01 -4.7197885710995E-01  6.4155053087375E-01
57  5.6000000000000E-01 -4.4847069835703E-01  6.8083292650687E-01
58  5.7000000000000E-01 -4.3032643535082E-01  7.1510345614332E-01
59  5.8000000000000E-01 -4.1832212747905E-01  7.4378234165821E-01
60  5.9000000000000E-01 -4.1309676282215E-01  7.6640821699590E-01
61  6.0000000000000E-01 -4.1513566949810E-01  7.8265033331087E-01
62  6.1000000000000E-01 -4.2475715421647E-01  7.9231800802650E-01
63  6.2000000000000E-01 -4.4210270599753E-01  7.9536706430733E-01
64  6.3000000000000E-01 -4.6713102784950E-01  7.9190307122645E-01
65  6.4000000000000E-01 -4.9961607747397E-01  7.8218126368797E-01
66  6.5000000000000E-01 -5.3914921152354E-01  7.6660309346934E-01
67  6.6000000000000E-01 -5.8514543841677E-01  7.4570943702332E-01
68  6.7000000000000E-01 -6.3685369416430E-01  7.2017056030587E-01
69  6.8000000000000E-01 -6.9337096604225E-01  6.9077301423930E-01
70  6.9000000000000E-01 -7.5366000223759E-01  6.5840370484888E-01
71  7.0000000000000E-01 -8.1657026370606E-01  6.2403144804771E-01
72  7.1000000000000E-01 -8.8086169925525E-01  5.8868637899339E-01
73  7.2000000000000E-01 -9.4523085800043E-01  5.5343763851834E-01
74  7.3000000000000E-01 -1.0083387963711E+00  5.1936980311042E-01
75  7.4000000000000E-01 -1.0688401911037E+00  4.8755855923521E-01
76  7.5000000000000E-01 -1.1254130362463E+00  4.5904614658354E-01
77  7.6000000000000E-01 -1.1767882819585E+00  4.3481710746351E-01
78  7.7000000000000E-01 -1.2217787663898E+00  4.1577488062963E-01
79  7.8000000000000E-01 -1.2593067994202E+00  4.0271976719900E-01
80  7.9000000000000E-01 -1.2884297785368E+00  3.9632877404257E-01
81  8.0000000000000E-01 -1.3083632522495E+00  3.9713780650789E-01
82  8.1000000000000E-01 -1.3185008946083E+00  4.0552663812457E-01
83  8.2000000000000E-01 -1.3184309146484E+00  4.2170703090088E-01
84  8.3000000000000E-01 -1.3079484957740E+00  4.4571431699168E-01
85  8.4000000000000E-01 -1.2870639407844E+00  4.7740268216122E-01
86  8.5000000000000E-01 -1.2560062867800E+00  5.1644431500693E-01
87  8.6000000000000E-01 -1.2152222487572E+00  5.6233250493016E-01
88  8.7000000000000E-01 -1.1653704493237E+00  6.1438868802321E-01
89  8.8000000000000E-01 -1.1073109925654E+00  6.7177335515825E-01
90  8.9000000000000E-01 -1.0420905405512E+00  7.3350065241908E-01
91  9.0000000000000E-01 -9.7092314909937E-01  7.9845642242189E-01
92  9.1000000000000E-01 -8.9516721315398E-01  8.6541935780075E-01
93  9.2000000000000E-01 -8.1629895937098E-01  9.3308486688700E-01
94  9.3000000000000E-01 -7.3588300238287E-01  1.0000911879748E+00
95  9.4000000000000E-01 -6.5554054992293E-01  1.0650472339895E+00
96  9.5000000000000E-01 -5.7691589901410E-01  1.1265616051048E+00
97  9.6000000000000E-01 -5.0164190940964E-01  1.1832721739691E+00
98  9.7000000000000E-01 -4.3130517038167E-01  1.2338756275110E+00
99  9.8000000000000E-01 -3.6741159201046E-01  1.2771563413794E+00
100  9.9000000000000E-01 -3.1135315188992E-01  1.3120139682356E+00
101  1.0000000000000E+00 -2.6437651247799E-01  1.3374891394051E+00
102  1.0100000000000E+00 -2.2755419337885E-01  1.3527867105684E+00
103  1.0200000000000E+00 -2.0175893719768E-01  1.3572960256755E+00
104  1.0300000000000E+00 -1.8764184802669E-01  1.3506077283786E+00
105  1.0400000000000E+00 -1.8561480924630E-01  1.3325267159544E+00
106  1.0500000000000E+00 -1.9583760368385E-01  1.3030809055427E+00
107  1.0600000000000E+00 -2.1821006569102E-01  1.2625255653233E+00
108  1.0700000000000E+00 -2.5236949345584E-01  1.2113430521284E+00
109  1.0800000000000E+00 -2.9769344296335E-01  1.1502378901377E+00
110  1.0900000000000E+00 -3.5330791422188E-01  1.0801272211675E+00
111  1.1000000000000E+00 -4.1810082875120E-01  1.0021267530197E+00
112  1.1100000000000E+00 -4.9074058623827E-01  9.1753242721780E-01
113  1.1200000000000E+00 -5.6969938100773E-01  8.2779811841957E-01
114  1.1300000000000E+00 -6.5328085696713E-01  7.3450976362669E-01
115  1.1400000000000E+00 -7.3965158578213E-01  6.3935639763810E-01
116  1.1500000000000E+00 -8.2687576876821E-01  5.4409864071249E-01
117  1.1600000000000E+00 -9.1295249055304E-01  4.5053524328018E-01
118  1.1700000000000E+00 -9.9585479323661E-01  3.6046833972592E-01
119  1.1800000000000E+00 -1.0735697952286E+00  2.7566809739964E-01
120  1.1900000000000E+00 -1.1441390498819E+00  1.9783746751618E-01
121  1.2000000000000E+00 -1.2056983264527E+00  1.2857775076746E-01
122  1.2100000000000E+00 -1.2565160000774E+00  6.9355682036540E-02
123  1.2200000000000E+00 -1.2950292583203E+00  2.1472715789489E-02
124  1.2300000000000E+00 -1.3198773692761E+00 -1.3962843375063E-02
125  1.2400000000000E+00 -1.3299313095788E+00 -3.6060271240731E-02
126  1.2500000000000E+00 -1.3243191183968E+00 -4.4166884660932E-02
127  1.2600000000000E+00 -1.3024464255304E+00 -3.7884076530084E-02
128  1.2700000000000E+00 -1.2640116950393E+00 -1.7078553526662E-02
129  1.2800000000000E+00 -1.2090158293276E+00  1.8111502082338E-02
130  1.2900000000000E+00 -1.1377658906672E+00  6.7275525515449E-02
131  1.3000000000000E+00 -1.0508728143657E+00  1.2973499262537E-01
132  1.3100000000000E+00 -9.4924310837563E-01  2.0455314216193E-01
133  1.3200000000000E+00 -8.3406465642832E-01  2.9054985908826E-01
134  1.3300000000000E+00 -7.0678686166491E-01  3.8632147641653E-01
135  1.3400000000000E+00 -5.6909548375104E-01  4.9026515244517E-01
136  1.3500000000000E+00 -4.2288263245869E-01  6.0060738544346E-01
137  1.3600000000000E+00 -2.7021248149345E-01  7.1543614148521E-01
138  1.3700000000000E+00 -1.1328335646799E-01  8.3273599453233E-01
139  1.3800000000000E+00  4.5613071924641E-02  9.5042561296165E-01
140  1.3900000000000E+00  2.0413469534557E-01  1.0663968744113E+00
141  1.4000000000000E+00  3.5993313472846E-01  1.1785548529267E+00
142  1.4100000000000E+00  5.1069829525671E-01  1.2848578992497E+00
143  1.4200000000000E+00  6.5420242528512E-01  1.3833570275203E+00
144  1.4300000000000E+00  7.8834280011678E-01  1.4722338296618E+00
145  1.4400000000000E+00  9.1118217469718E-01  1.5498361626528E+00
146  1.4500000000000E+00  1.0209861896879E+00  1.6147108928712E+00
147  1.4600000000000E+00  1.1162569725932E+00  1.6656330353432E+00
148  1.4700000000000E+00  1.1957622484631E+00  1.7016306929486E+00
149  1.4800000000000E+00  1.2585593617713E+00  1.7220052801528E+00
150  1.4900000000000E+00  1.3040137103010E+00  1.7263466057981E+00
151  1.5000000000000E+00  1.3318112023701E+00  1.7145424891019E+00
152  1.5100000000000E+00  1.3419644666651E+00  1.6867826888647E+00
153  1.5200000000000E+00  1.3348126683616E+00  1.6435570371446E+00
154  1.5300000000000E+00  1.3110149128377E+00  1.5856477824399E+00
155  1.5400000000000E+00  1.2715373467776E+00  1.5141162616395E+00
156  1.5500000000000E+00  1.2176341931388E+00  1.4302841323362E+00
157  1.5600000000000E+00  1.1508230788511E+00  1.3357095053530E+00
158  1.5700000000000E+00  1.0728551294315E+00  1.2321584190807E+00
159  1.5800000000000E+00  9.8568041097869E-01  1.1215721907755E+00
160  1.5900000000000E+00  8.9140939489226E-01  1.0060312632141E+00
161  1.6000000000000E+00  7.9227120226828E-01  8.8771623254313E-01
162  1.6100000000000E+00  6.9056944190046E-01  7.6886682890466E-01
163  1.6200000000000E+00  5.8863654811397E-01  6.5173947309747E-01
164  1.6300000000000E+00  4.8878720837864E-01  5.3856420233175E-01