Pm    ONCVPSP-4.0.1  r_core=   2.00379   1.60593   1.91015   1.60593
61.0000     15.0000      250626    zatom,zion,pspd
8      11   3     4   600     0    pspcod,pspxc,lmax,lloc,mmax,r2well
5.99000000 24.30000000  0.00000000    rchrg fchrg qchrg
2     2     2     2     0    nproj
1     1           extension_switch
0                         7.0945765352190E+00  4.6646555260102E-01
1  0.0000000000000E+00  7.1154360181680E-11 -3.2005754990738E-10
2  1.0000000000000E-02  3.7849005875915E-02 -4.3212342525168E-03
3  2.0000000000000E-02  7.5684481889046E-02 -8.6863009133163E-03
4  3.0000000000000E-02  1.1349272063962E-01 -1.3138321456265E-02
5  4.0000000000000E-02  1.5125966158781E-01 -1.7719003376476E-02
6  5.0000000000000E-02  1.8897071930034E-01 -2.2467952844033E-02
7  6.0000000000000E-02  2.2661061742617E-01 -2.7422010700440E-02
8  7.0000000000000E-02  2.6416323022671E-01 -3.2614619199412E-02
9  8.0000000000000E-02  3.0161143341496E-01 -3.8075226573528E-02
10  9.0000000000000E-02  3.3893696596996E-01 -4.3828736113944E-02
11  1.0000000000000E-01  3.7612030448979E-01 -4.9895005986158E-02
12  1.1000000000000E-01  4.1314055152798E-01 -5.6288405475143E-02
13  1.2000000000000E-01  4.4997533922625E-01 -6.3017432763165E-02
14  1.3000000000000E-01  4.8660074941252E-01 -7.0084398699803E-02
15  1.4000000000000E-01  5.2299125117739E-01 -7.7485180331791E-02
16  1.5000000000000E-01  5.5911965677764E-01 -8.5209047227672E-02
17  1.6000000000000E-01  5.9495709654199E-01 -9.3238562866542E-02
18  1.7000000000000E-01  6.3047301327510E-01 -1.0154956256843E-01
19  1.8000000000000E-01  6.6563517647137E-01 -1.1011120863467E-01
20  1.9000000000000E-01  7.0040971646274E-01 -1.1888612254814E-01
21  2.0000000000000E-01  7.3476117843635E-01 -1.2783059326343E-01
22  2.1000000000000E-01  7.6865259606954E-01 -1.3689485980484E-01
23  2.2000000000000E-01  8.0204558434405E-01 -1.4602346559338E-01
24  2.3000000000000E-01  8.3490045091931E-01 -1.5515568115114E-01
25  2.4000000000000E-01  8.6717632526870E-01 -1.6422599109068E-01
26  2.5000000000000E-01  8.9883130461407E-01 -1.7316464059582E-01
27  2.6000000000000E-01  9.2982261553369E-01 -1.8189823594588E-01
28  2.7000000000000E-01  9.6010678997014E-01 -1.9035039303553E-01
29  2.8000000000000E-01  9.8963985422683E-01 -1.9844242730166E-01
30  2.9000000000000E-01  1.0183775294180E+00 -2.0609407799588E-01
31  3.0000000000000E-01  1.0462754417269E+00 -2.1322425933819E-01
32  3.1000000000000E-01  1.0732893407337E+00 -2.1975183076081E-01
33  3.2000000000000E-01  1.0993753239942E+00 -2.2559637820464E-01
34  3.3000000000000E-01  1.1244900659928E+00 -2.3067899826628E-01
35  3.4000000000000E-01  1.1485910495466E+00 -2.3492307691388E-01
36  3.5000000000000E-01  1.1716367977138E+00 -2.3825505449676E-01
37  3.6000000000000E-01  1.1935871042534E+00 -2.4060516886687E-01
38  3.7000000000000E-01  1.2144032606909E+00 -2.4190816860870E-01
39  3.8000000000000E-01  1.2340482780792E+00 -2.4210398863859E-01
40  3.9000000000000E-01  1.2524871015855E+00 -2.4113838078013E-01
41  4.0000000000000E-01  1.2696868161049E+00 -2.3896349234827E-01
42  4.1000000000000E-01  1.2856168411788E+00 -2.3553838627593E-01
43  4.2000000000000E-01  1.3002491135963E+00 -2.3082949688883E-01
44  4.3000000000000E-01  1.3135582561670E+00 -2.2481101607155E-01
45  4.4000000000000E-01  1.3255217312821E+00 -2.1746520526468E-01
46  4.5000000000000E-01  1.3361199780165E+00 -2.0878262948125E-01
47  4.6000000000000E-01  1.3453365316788E+00 -1.9876231032503E-01
48  4.7000000000000E-01  1.3531581248714E+00 -1.8741179582319E-01
49  4.8000000000000E-01  1.3595747692938E+00 -1.7474714574576E-01
50  4.9000000000000E-01  1.3645798176963E+00 -1.6079283196317E-01
51  5.0000000000000E-01  1.3681700055693E+00 -1.4558155428243E-01
52  5.1000000000000E-01  1.3703454723362E+00 -1.2915397309499E-01
53  5.2000000000000E-01  1.3711097620022E+00 -1.1155836105184E-01
54  5.3000000000000E-01  1.3704698033920E+00 -9.2850176849015E-02
55  5.4000000000000E-01  1.3684358702915E+00 -7.3091565046696E-02
56  5.5000000000000E-01  1.3650215219838E+00 -5.2350786650713E-02
57  5.6000000000000E-01  1.3602435248386E+00 -3.0701585946995E-02
58  5.7000000000000E-01  1.3541217557795E+00 -8.2224997889006E-03
59  5.8000000000000E-01  1.3466790886038E+00  1.5003883812572E-02
60  5.9000000000000E-01  1.3379412642730E+00  3.8891710362860E-02
61  6.0000000000000E-01  1.3279367464233E+00  6.3352678880329E-02
62  6.1000000000000E-01  1.3166965634603E+00  8.8296888842854E-02
63  6.2000000000000E-01  1.3042541387079E+00  1.1363370536682E-01
64  6.3000000000000E-01  1.2906451101650E+00  1.3927263364357E-01
65  6.4000000000000E-01  1.2759071414972E+00  1.6512419349235E-01
66  6.5000000000000E-01  1.2600797259448E+00  1.9110078481777E-01
67  6.6000000000000E-01  1.2432039848647E+00  2.1711753478232E-01
68  6.7000000000000E-01  1.2253224626443E+00  2.4309311762410E-01
69  6.8000000000000E-01  1.2064789197289E+00  2.6895053826294E-01
70  6.9000000000000E-01  1.1867181254875E+00  2.9461787114412E-01
71  7.0000000000000E-01  1.1660856526134E+00  3.2002894616566E-01
72  7.1000000000000E-01  1.1446276747045E+00  3.4512397401694E-01
73  7.2000000000000E-01  1.1223907686092E+00  3.6985010382071E-01
74  7.3000000000000E-01  1.0994217230405E+00  3.9416190660978E-01
75  7.4000000000000E-01  1.0757673548750E+00  4.1802177887921E-01
76  7.5000000000000E-01  1.0514743344437E+00  4.4140026122497E-01
77  7.6000000000000E-01  1.0265890210101E+00  4.6427626790618E-01
78  7.7000000000000E-01  1.0011573095034E+00  4.8663722403797E-01
79  7.8000000000000E-01  9.7522448944294E-01  5.0847910802972E-01
80  7.9000000000000E-01  9.4883511684822E-01  5.2980639781780E-01
81  8.0000000000000E-01  9.2203289978573E-01  5.5063192039348E-01
82  8.1000000000000E-01  8.9486059805372E-01  5.7097660508621E-01
83  8.2000000000000E-01  8.6735993735758E-01  5.9086914201941E-01
84  8.3000000000000E-01  8.3957153817810E-01  6.1034554810027E-01
85  8.4000000000000E-01  8.1153485938704E-01  6.2944864382805E-01
86  8.5000000000000E-01  7.8328815651992E-01  6.4822744509624E-01
87  8.6000000000000E-01  7.5486845447638E-01  6.6673647501572E-01
88  8.7000000000000E-01  7.2631153428483E-01  6.8503500158818E-01
89  8.8000000000000E-01  6.9765193344277E-01  7.0318620780521E-01
90  8.9000000000000E-01  6.6892295922689E-01  7.2125630143200E-01
91  9.0000000000000E-01  6.4015671426021E-01  7.3931357234713E-01
92  9.1000000000000E-01  6.1138413352687E-01  7.5742740585000E-01
93  9.2000000000000E-01  5.8263503194021E-01  7.7566726080603E-01
94  9.3000000000000E-01  5.5393816149623E-01  7.9410162187867E-01
95  9.4000000000000E-01  5.2532127698342E-01  8.1279693539020E-01
96  9.5000000000000E-01  4.9681120917075E-01  8.3181653856136E-01
97  9.6000000000000E-01  4.6843394435861E-01  8.5121959200320E-01
98  9.7000000000000E-01  4.4021470915213E-01  8.7106002537272E-01
99  9.8000000000000E-01  4.1217805930220E-01  8.9138550606049E-01
100  9.9000000000000E-01  3.8434797145626E-01  9.1223644065628E-01
101  1.0000000000000E+00  3.5674793666684E-01  9.3364501874135E-01
102  1.0100000000000E+00  3.2940105452120E-01  9.5563430828917E-01
103  1.0200000000000E+00  3.0233012677787E-01  9.7821741162470E-01
104  1.0300000000000E+00  2.7555774942503E-01  1.0013966905039E+00
105  1.0400000000000E+00  2.4910640211009E-01  1.0251630684343E+00
106  1.0500000000000E+00  2.2299853392757E-01  1.0494954178739E+00
107  1.0600000000000E+00  1.9725664459320E-01  1.0743600394256E+00
108  1.0700000000000E+00  1.7190336007337E-01  1.0997102395946E+00
109  1.0800000000000E+00  1.4696150178062E-01  1.1254860131060E+00
110  1.0900000000000E+00  1.2245414848549E-01  1.1516138351949E+00
111  1.1000000000000E+00  9.8404690132330E-02  1.1780065686881E+00
112  1.1100000000000E+00  7.4836872780362E-02  1.2045634901026E+00
113  1.1200000000000E+00  5.1774833920345E-02  1.2311704383937E+00
114  1.1300000000000E+00  2.9243127441690E-02  1.2577000894038E+00
115  1.1400000000000E+00  7.2667375436979E-03  1.2840123584886E+00
116  1.1500000000000E+00 -1.4128919101680E-02  1.3099549332373E+00
117  1.1600000000000E+00 -3.4918003619697E-02  1.3353639376559E+00
118  1.1700000000000E+00 -5.5074278315452E-02  1.3600647286456E+00
119  1.1800000000000E+00 -7.4571143849054E-02  1.3838728250797E+00
120  1.1900000000000E+00 -9.3381690885115E-02  1.4065949692576E+00
121  1.2000000000000E+00 -1.1147876690093E-01  1.4280303199883E+00
122  1.2100000000000E+00 -1.2883505883890E-01  1.4479717760100E+00
123  1.2200000000000E+00 -1.4542319228596E-01  1.4662074278971E+00
124  1.2300000000000E+00 -1.6121584785344E-01  1.4825221360003E+00
125  1.2400000000000E+00 -1.7618589541082E-01  1.4966992313207E+00
126  1.2500000000000E+00 -1.9030654679397E-01  1.5085223355043E+00
127  1.2600000000000E+00 -2.0355152755644E-01  1.5177772953365E+00
128  1.2700000000000E+00 -2.1589526825949E-01  1.5242542262135E+00
129  1.2800000000000E+00 -2.2731311569525E-01  1.5277496580286E+00
130  1.2900000000000E+00 -2.3778156430403E-01  1.5280687757173E+00
131  1.3000000000000E+00 -2.4727850787580E-01  1.5250277453368E+00
132  1.3100000000000E+00 -2.5578351141101E-01  1.5184561149770E+00
133  1.3200000000000E+00 -2.6327810275036E-01  1.5081992779803E+00
134  1.3300000000000E+00 -2.6974608326149E-01  1.4941209838594E+00
135  1.3400000000000E+00 -2.7517385648749E-01  1.4761058799276E+00
136  1.3500000000000E+00 -2.7955077320578E-01  1.4540620639189E+00
137  1.3600000000000E+00 -2.8286949081513E-01  1.4279236247968E+00
138  1.3700000000000E+00 -2.8512634435111E-01  1.3976531454388E+00
139  1.3800000000000E+00 -2.8632172572500E-01  1.3632441369670E+00
140  1.3900000000000E+00 -2.8646046696886E-01  1.3247233700427E+00
141  1.4000000000000E+00 -2.8555222235659E-01  1.2821530635200E+00
142  1.4100000000000E+00 -2.8361184323746E-01  1.2356328853328E+00
143  1.4200000000000E+00 -2.8065973826310E-01  1.1853017143820E+00
144  1.4300000000000E+00 -2.7672221040293E-01  1.1313391054409E+00
145  1.4400000000000E+00 -2.7183176070850E-01  1.0739663916156E+00
146  1.4500000000000E+00 -2.6602734721119E-01  1.0134473507310E+00
147  1.4600000000000E+00 -2.5935458559735E-01  9.5008835302077E-01
148  1.4700000000000E+00 -2.5186587639477E-01  8.8423789768002E-01
149  1.4800000000000E+00 -2.4362044132092E-01  8.1628543514809E-01
150  1.4900000000000E+00 -2.3468424916625E-01  7.4665936033764E-01
151  1.5000000000000E+00 -2.2512980910757E-01  6.7582404936463E-01
152  1.5100000000000E+00 -2.1503580666508E-01  6.0427579865344E-01
153  1.5200000000000E+00 -2.0448655460685E-01  5.3253751045957E-01
154  1.5300000000000E+00 -1.9357122796367E-01  4.6115195285013E-01
155  1.5400000000000E+00 -1.8238284892904E-01  3.9067340492851E-01
156  1.5500000000000E+00 -1.7101698377314E-01  3.2165747952010E-01
157  1.5600000000000E+00 -1.5957010997106E-01  2.5464889552391E-01
158  1.5700000000000E+00 -1.4813760755576E-01  1.9016695078726E-01
159  1.5800000000000E+00 -1.3681132307380E-01  1.2868841444351E-01
160  1.5900000000000E+00 -1.2567664929294E-01  7.0627531805092E-02
161  1.6000000000000E+00 -1.1480913874417E-01  1.6313435731614E-02
162  1.6100000000000E+00 -1.0427015143034E-01 -3.4038837278468E-02
163  1.6200000000000E+00 -9.4105770810439E-02 -8.0329728362388E-02
164  1.6300000000000E+00 -8.4353400408378E-02 -1.2251651504296E-01
165  1.6400000000000E+00 -7.5046084913310E-02 -1.6057690839948E-01
166  1.6500000000000E+00 -6.6212197482819E-02 -1.9451114953463E-01
167  1.6600000000000E+00 -5.7875432413984E-02 -2.2434167479143E-01
168  1.6700000000000E+00 -5.0054769675546E-02 -2.5011314096497E-01
169  1.6800000000000E+00 -4.2764474217643E-02 -2.7189227830848E-01
170  1.6900000000000E+00 -3.6014132944296E-02 -2.8976755074180E-01
171  1.7000000000000E+00 -2.9808727718283E-02 -3.0384863633618E-01
172  1.7100000000000E+00 -2.4148743962502E-02 -3.1426573034553E-01
173  1.7200000000000E+00 -1.9030314105302E-02 -3.2116867466143E-01
174  1.7300000000000E+00 -1.4445394800791E-02 -3.2472591919404E-01
175  1.7400000000000E+00 -1.0381976561315E-02 -3.2512332215516E-01
176  1.7500000000000E+00 -6.8243241085236E-03 -3.2256279798188E-01
177  1.7600000000000E+00 -3.7532454941116E-03 -3.1726082288541E-01
178  1.7700000000000E+00 -1.1463877768215E-03 -3.0944680936055E-01
179  1.7800000000000E+00  1.0214432653136E-03 -2.9936136267038E-01
180  1.7900000000000E+00  2.7779420100699E-03 -2.8725443261948E-01
181  1.8000000000000E+00  4.1529433972707E-03 -2.7338337577497E-01
182  1.8100000000000E+00  5.1780481761647E-03 -2.5801094548253E-01
183  1.8200000000000E+00  5.8862356687301E-03 -2.4140322244661E-01
184  1.8300000000000E+00  6.3114680761777E-03 -2.2382750763918E-01
185  1.8400000000000E+00  6.4882893508577E-03 -2.0555019230687E-01
186  1.8500000000000E+00  6.4514222956017E-03 -1.8683462409604E-01
187  1.8600000000000E+00  6.2353674374717E-03 -1.6793898747639E-01
188  1.8700000000000E+00  5.8740093338060E-03 -1.4911422470424E-01
189  1.8800000000000E+00  5.4002129795101E-03 -1.3060193556853E-01
190  1.8900000000000E+00  4.8454964840358E-03 -1.1263258703596E-01
191  1.9000000000000E+00  4.2396174043956E-03 -9.5423435265468E-02
192  1.9100000000000E+00  3.6092919398968E-03 -7.9173089635367E-02
193  1.9200000000000E+00  2.9772033936520E-03 -6.4057109694958E-02
194  1.9300000000000E+00  2.3668512172730E-03 -5.0246336443793E-02
195  1.9400000000000E+00  1.7991137663576E-03 -3.7893548744010E-02
196  1.9500000000000E+00  1.2914062334344E-03 -2.7129901842818E-02
197  1.9600000000000E+00  8.5760845842091E-04 -1.8064328361273E-02
198  1.9700000000000E+00  5.0792753098134E-04 -1.0783883518613E-02
199  1.9800000000000E+00  2.4847066458308E-04 -5.3461307226892E-03
200  1.9900000000000E+00  8.1291391197604E-05 -1.7822901080016E-03
201  2.0000000000000E+00  8.8140971534494E-06 -1.9853752489527E-04
202  2.0100000000000E+00 -2.6876207676268E-06  6.1205203400819E-05
203  2.0200000000000E+00  8.4914764601722E-07 -1.9025998905894E-05
204  2.03 -0.  0.
205  2.04 -0.  0.
206  2.05 -0.  0.
207  2.06  0.  0.
208  2.07  0.  0.
209  2.08  0.  0.
210  2.09  0.  0.
211  2.10  0.  0.
212  2.11  0.  0.
213  2.12  0.  0.
214  2.13  0.  0.
215  2.14  0.  0.
216  2.15  0.  0.
217  2.16  0.  0.
218  2.17  0.  0.
219  2.18  0.  0.
220  2.19  0.  0.
221  2.20  0.  0.
222  2.21  0.  0.
223  2.22  0.  0.
224  2.23  0.  0.
225  2.24  0.  0.
226  2.25  0.  0.
227  2.26  0.  0.
228  2.27  0.  0.
229  2.28  0.  0.
230  2.29  0.  0.
231  2.30  0.  0.
232  2.31  0.  0.
233  2.32  0.  0.
234  2.33  0.  0.
235  2.34  0.  0.
236  2.35  0.  0.
237  2.36  0.  0.
238  2.37  0.  0.
239  2.38  0.  0.
240  2.39  0.  0.
241  2.40  0.  0.
242  2.41  0.  0.
243  2.42  0.  0.
244  2.43  0.  0.
245  2.44  0.  0.
246  2.45  0.  0.
247  2.46  0.  0.
248  2.47  0.  0.
249  2.48  0.  0.
250  2.49  0.  0.
251  2.50  0.  0.
252  2.51  0.  0.
253  2.52  0.  0.
254  2.53  0.  0.
255  2.54  0.  0.
256  2.55  0.  0.
257  2.56  0.  0.
258  2.57  0.  0.
259  2.58  0.  0.
260  2.59  0.  0.
261  2.60  0.  0.
262  2.61  0.  0.
263  2.62  0.  0.
264  2.63  0.  0.
265  2.64  0.  0.
266  2.65  0.  0.
267  2.66  0.  0.
268  2.67  0.  0.
269  2.68  0.  0.
270  2.69  0.  0.
271  2.70  0.  0.
272  2.71  0.  0.
273  2.72  0.  0.
274  2.73  0.  0.
275  2.74  0.  0.
276  2.75  0.  0.
277  2.76  0.  0.
278  2.77  0.  0.
279  2.78  0.  0.
280  2.79  0.  0.
281  2.80  0.  0.
282  2.81  0.  0.
283  2.82  0.  0.
284  2.83  0.  0.
285  2.84  0.  0.
286  2.85  0.  0.
287  2.86  0.  0.
288  2.87  0.  0.
289  2.88  0.  0.
290  2.89  0.  0.
291  2.90  0.  0.
292  2.91  0.  0.
293  2.92  0.  0.
294  2.93  0.  0.
295  2.94  0.  0.
296  2.95  0.  0.
297  2.96  0.  0.
298  2.97  0.  0.
299  2.98  0.  0.
300  2.99  0.  0.
301  3.00  0.  0.
302  3.01  0.  0.
303  3.02  0.  0.
304  3.03  0.  0.
305  3.04  0.  0.
306  3.05  0.  0.
307  3.06  0.  0.
308  3.07  0.  0.
309  3.08  0.  0.
310  3.09  0.  0.
311  3.10  0.  0.
312  3.11  0.  0.
313  3.12  0.  0.
314  3.13  0.  0.
315  3.14  0.  0.
316  3.15  0.  0.
317  3.16  0.  0.
318  3.17  0.  0.
319  3.18  0.  0.
320  3.19  0.  0.
321  3.20  0.  0.
322  3.21  0.  0.
323  3.22  0.  0.
324  3.23  0.  0.
325  3.24  0.  0.
326  3.25  0.  0.
327  3.26  0.  0.
328  3.27  0.  0.
329  3.28  0.  0.
330  3.29  0.  0.
331  3.30  0.  0.
332  3.31  0.  0.
333  3.32  0.  0.
334  3.33  0.  0.
335  3.34  0.  0.
336  3.35  0.  0.
337  3.36  0.  0.
338  3.37  0.  0.
339  3.38  0.  0.
340  3.39  0.  0.
341  3.40  0.  0.
342  3.41  0.  0.
343  3.42  0.  0.
344  3.43  0.  0.
345  3.44  0.  0.
346  3.45  0.  0.
347  3.46  0.  0.
348  3.47  0.  0.
349  3.48  0.  0.
350  3.49  0.  0.
351  3.50  0.  0.
352  3.51  0.  0.
353  3.52  0.  0.
354  3.53  0.  0.
355  3.54  0.  0.
356  3.55  0.  0.
357  3.56  0.  0.
358  3.57  0.  0.
359  3.58  0.  0.
360  3.59  0.  0.
361  3.60  0.  0.
362  3.61  0.  0.
363  3.62  0.  0.
364  3.63  0.  0.
365  3.64  0.  0.
366  3.65  0.  0.
367  3.66  0.  0.
368  3.67  0.  0.
369  3.68  0.  0.
370  3.69  0.  0.
371  3.70  0.  0.
372  3.71  0.  0.
373  3.72  0.  0.
374  3.73  0.  0.
375  3.74  0.  0.
376  3.75  0.  0.
377  3.76  0.  0.
378  3.77  0.  0.
379  3.78  0.  0.
380  3.79  0.  0.
381  3.80  0.  0.
382  3.81  0.  0.
383  3.82  0.  0.
384  3.83  0.  0.
385  3.84  0.  0.
386  3.85  0.  0.
387  3.86  0.  0.
388  3.87  0.  0.
389  3.88  0.  0.
390  3.89  0.  0.
391  3.90  0.  0.
392  3.91  0.  0.
393  3.92  0.  0.
394  3.93  0.  0.
395  3.94  0.  0.
396  3.95  0.  0.
397  3.96  0.  0.
398  3.97  0.  0.
399  3.98  0.  0.
400  3.99  0.  0.
401  4.00  0.  0.
402  4.01  0.  0.
403  4.02  0.  0.
404  4.03  0.  0.
405  4.04  0.  0.
406  4.05  0.  0.
407  4.06  0.  0.
408  4.07  0.  0.
409  4.08  0.  0.
410  4.09  0.  0.
411  4.10  0.  0.
412  4.11  0.  0.
413  4.12  0.  0.
414  4.13  0.  0.
415  4.14  0.  0.
416  4.15  0.  0.
417  4.16  0.  0.
418  4.17  0.  0.
419  4.18  0.  0.
420  4.19  0.  0.
421  4.20  0.  0.
422  4.21  0.  0.
423  4.22  0.  0.
424  4.23  0.  0.
425  4.24  0.  0.
426  4.25  0.  0.
427  4.26  0.  0.
428  4.27  0.  0.
429  4.28  0.  0.
430  4.29  0.  0.
431  4.30  0.  0.
432  4.31  0.  0.
433  4.32  0.  0.
434  4.33  0.  0.
435  4.34  0.  0.
436  4.35  0.  0.
437  4.36  0.  0.
438  4.37  0.  0.
439  4.38  0.  0.
440  4.39  0.  0.
441  4.40  0.  0.
442  4.41  0.  0.
443  4.42  0.  0.
444  4.43  0.  0.
445  4.44  0.  0.
446  4.45  0.  0.
447  4.46  0.  0.
448  4.47  0.  0.
449  4.48  0.  0.
450  4.49  0.  0.
451  4.50  0.  0.
452  4.51  0.  0.
453  4.52  0.  0.
454  4.53  0.  0.
455  4.54  0.  0.
456  4.55  0.  0.
457  4.56  0.  0.
458  4.57  0.  0.
459  4.58  0.  0.
460  4.59  0.  0.
461  4.60  0.  0.
462  4.61  0.  0.
463  4.62  0.  0.
464  4.63  0.  0.
465  4.64  0.  0.
466  4.65  0.  0.
467  4.66  0.  0.
468  4.67  0.  0.
469  4.68  0.  0.
470  4.69  0.  0.
471  4.70  0.  0.
472  4.71  0.  0.
473  4.72  0.  0.
474  4.73  0.  0.
475  4.74  0.  0.
476  4.75  0.  0.
477  4.76  0.  0.
478  4.77  0.  0.
479  4.78  0.  0.
480  4.79  0.  0.
481  4.80  0.  0.
482  4.81  0.  0.
483  4.82  0.  0.
484  4.83  0.  0.
485  4.84  0.  0.
486  4.85  0.  0.
487  4.86  0.  0.
488  4.87  0.  0.
489  4.88  0.  0.
490  4.89  0.  0.
491  4.90  0.  0.
492  4.91  0.  0.
493  4.92  0.  0.
494  4.93  0.  0.
495  4.94  0.  0.
496  4.95  0.  0.
497  4.96  0.  0.
498  4.97  0.  0.
499  4.98  0.  0.
500  4.99  0.  0.
501  5.00  0.  0.
502  5.01  0.  0.
503  5.02  0.  0.
504  5.03  0.  0.
505  5.04  0.  0.
506  5.05  0.  0.
507  5.06  0.  0.
508  5.07  0.  0.
509  5.08  0.  0.
510  5.09  0.  0.
511  5.10  0.  0.
512  5.11  0.  0.
513  5.12  0.  0.
514  5.13  0.  0.
515  5.14  0.  0.
516  5.15  0.  0.
517  5.16  0.  0.
518  5.17  0.  0.
519  5.18  0.  0.
520  5.19  0.  0.
521  5.20  0.  0.
522  5.21  0.  0.
523  5.22  0.  0.
524  5.23  0.  0.
525  5.24  0.  0.
526  5.25  0.  0.
527  5.26  0.  0.
528  5.27  0.  0.
529  5.28  0.  0.
530  5.29  0.  0.
531  5.30  0.  0.
532  5.31  0.  0.
533  5.32  0.  0.
534  5.33  0.  0.
535  5.34  0.  0.
536  5.35  0.  0.
537  5.36  0.  0.
538  5.37  0.  0.
539  5.38  0.  0.
540  5.39  0.  0.
541  5.40  0.  0.
542  5.41  0.  0.
543  5.42  0.  0.
544  5.43  0.  0.
545  5.44  0.  0.
546  5.45  0.  0.
547  5.46  0.  0.
548  5.47  0.  0.
549  5.48  0.  0.
550  5.49  0.  0.
551  5.50  0.  0.
552  5.51  0.  0.
553  5.52  0.  0.
554  5.53  0.  0.
555  5.54  0.  0.
556  5.55  0.  0.
557  5.56  0.  0.
558  5.57  0.  0.
559  5.58  0.  0.
560  5.59  0.  0.
561  5.60  0.  0.
562  5.61  0.  0.
563  5.62  0.  0.
564  5.63  0.  0.
565  5.64  0.  0.
566  5.65  0.  0.
567  5.66  0.  0.
568  5.67  0.  0.
569  5.68  0.  0.
570  5.69  0.  0.
571  5.70  0.  0.
572  5.71  0.  0.
573  5.72  0.  0.
574  5.73  0.  0.
575  5.74  0.  0.
576  5.75  0.  0.
577  5.76  0.  0.
578  5.77  0.  0.
579  5.78  0.  0.
580  5.79  0.  0.
581  5.80  0.  0.
582  5.81  0.  0.
583  5.82  0.  0.
584  5.83  0.  0.
585  5.84  0.  0.
586  5.85  0.  0.
587  5.86  0.  0.
588  5.87  0.  0.
589  5.88  0.  0.
590  5.89  0.  0.
591  5.90  0.  0.
592  5.91  0.  0.
593  5.92  0.  0.
594  5.93  0.  0.
595  5.94  0.  0.
596  5.95  0.  0.
597  5.96  0.  0.
598  5.97  0.  0.
599  5.98  0.  0.
600  5.99  0.  0.
1                         4.7538980698334E+00  5.7186113886271E-01
1  0.0000000000000E+00  1.0592287047473E-08 -5.7638730621701E-08
2  1.0000000000000E-02  1.3810205471490E-03 -3.1997961546053E-03
3  2.0000000000000E-02  5.5075685130897E-03 -1.2717091126903E-02
4  3.0000000000000E-02  1.2330418301938E-02 -2.8307319638090E-02
5  4.0000000000000E-02  2.1768572447447E-02 -4.9568556287760E-02
6  5.0000000000000E-02  3.3710807677945E-02 -7.5949922578461E-02
7  6.0000000000000E-02  4.8017796389918E-02 -1.0676312294487E-01
8  7.0000000000000E-02  6.4524761516151E-02 -1.4119688139436E-01
9  8.0000000000000E-02  8.3044612182070E-02 -1.7833399272706E-01
10  9.0000000000000E-02  1.0337149797335E-01 -2.1717065017835E-01
11  1.0000000000000E-01  1.2528471127597E-01 -2.5663766572483E-01
12  1.1000000000000E-01  1.4855286016014E-01 -2.9562316110138E-01
13  1.2000000000000E-01  1.7293822879988E-01 -3.3299627753802E-01
14  1.3000000000000E-01  1.9820123855897E-01 -3.6763143093157E-01
15  1.4000000000000E-01  2.2410492070995E-01 -3.9843262704435E-01
16  1.5000000000000E-01  2.5041931133067E-01 -4.2435734862132E-01
17  1.6000000000000E-01  2.7692568025567E-01 -4.4443953310991E-01
18  1.7000000000000E-01  3.0342050902489E-01 -4.5781117584513E-01
19  1.8000000000000E-01  3.2971913751603E-01 -4.6372211883747E-01
20  1.9000000000000E-01  3.5565900528145E-01 -4.6155761921175E-01
21  2.0000000000000E-01  3.8110242141826E-01 -4.5085333326221E-01
22  2.1000000000000E-01  4.0593880593470E-01 -4.3130740123189E-01
23  2.2000000000000E-01  4.3008635586395E-01 -4.0278937336956E-01
24  2.3000000000000E-01  4.5349310062422E-01 -3.6534577852120E-01
25  2.4000000000000E-01  4.7613732311523E-01 -3.1920220132533E-01
26  2.5000000000000E-01  4.9802733554863E-01 -2.6476180177355E-01
27  2.6000000000000E-01  5.1920061179180E-01 -2.0260028017771E-01
28  2.7000000000000E-01  5.3972229081513E-01 -1.3345736012988E-01
29  2.8000000000000E-01  5.5968307842439E-01 -5.8224930515291E-02
30  2.9000000000000E-01  5.7919658658711E-01  2.2067946277802E-02
31  3.0000000000000E-01  5.9839616108747E-01  1.0627289039423E-01
32  3.1000000000000E-01  6.1743125874435E-01  1.9314259770731E-01
33  3.2000000000000E-01  6.3646344479278E-01  2.8135339157092E-01
34  3.3000000000000E-01  6.5566208907289E-01  3.6952951003880E-01
35  3.4000000000000E-01  6.7519984622987E-01  4.5626866889436E-01
36  3.5000000000000E-01  6.9524801006749E-01  5.4016841292764E-01
37  3.6000000000000E-01  7.1597183541116E-01  6.1985274923167E-01
38  3.7000000000000E-01  7.3752592225176E-01  6.9399854727631E-01
39  3.8000000000000E-01  7.6004975651959E-01  7.6136119137912E-01
40  3.9000000000000E-01  7.8366349957498E-01  8.2079898197138E-01
41  4.0000000000000E-01  8.0846411442970E-01  8.7129580260125E-01
42  4.1000000000000E-01  8.3452191089729E-01  9.1198159959309E-01
43  4.2000000000000E-01  8.6187758441148E-01  9.4215026017182E-01
44  4.3000000000000E-01  8.9053981428055E-01  9.6127452197646E-01
45  4.4000000000000E-01  9.2048347682557E-01  9.6901760137690E-01
46  4.5000000000000E-01  9.5164851736848E-01  9.6524128887678E-01
47  4.6000000000000E-01  9.8393951260616E-01  9.5001032601018E-01
48  4.7000000000000E-01  1.0172259417589E+00  9.2359294829218E-01
49  4.8000000000000E-01  1.0513431712642E+00  8.8645755164648E-01
50  4.9000000000000E-01  1.0860941439587E+00  8.3926551393659E-01
51  5.0000000000000E-01  1.1212517499097E+00  7.8286027735952E-01
52  5.1000000000000E-01  1.1565618426011E+00  7.1825287010742E-01
53  5.2000000000000E-01  1.1917468512890E+00  6.4660411546697E-01
54  5.3000000000000E-01  1.2265099282886E+00  5.6920384205399E-01
55  5.4000000000000E-01  1.2605395589636E+00  4.8744746889523E-01
56  5.5000000000000E-01  1.2935145524839E+00  4.0281039238269E-01
57  5.6000000000000E-01  1.3251093231933E+00  3.1682064767563E-01
58  5.7000000000000E-01  1.3549993658601E+00  2.3103035398558E-01
59  5.8000000000000E-01  1.3828668232967E+00  1.4698648058524E-01
60  5.9000000000000E-01  1.4084060419559E+00  6.6201487739717E-02
61  6.0000000000000E-01  1.4313290101903E+00 -9.8755963350168E-03
62  6.1000000000000E-01  1.4513705749522E+00 -7.9887105135945E-02
63  6.2000000000000E-01  1.4682933357909E+00 -1.4259312723288E-01
64  6.3000000000000E-01  1.4818921200521E+00 -1.9689584529540E-01
65  6.4000000000000E-01  1.4919979500992E+00 -2.4186133773416E-01
66  6.5000000000000E-01  1.4984814220592E+00 -2.7673840436899E-01
67  6.6000000000000E-01  1.5012554258881E+00 -3.0097403071550E-01
68  6.7000000000000E-01  1.5002771482744E+00 -3.1422516642820E-01
69  6.8000000000000E-01  1.4955493128362E+00 -3.1636656105291E-01
70  6.9000000000000E-01  1.4871206259952E+00 -3.0749447328759E-01
71  7.0000000000000E-01  1.4750854115571E+00 -2.8792614707847E-01
72  7.1000000000000E-01  1.4595824321334E+00 -2.5819502765775E-01
73  7.2000000000000E-01  1.4407929108139E+00 -2.1904177155611E-01
74  7.3000000000000E-01  1.4189377816565E+00 -1.7140118517234E-01
75  7.4000000000000E-01  1.3942742123126E+00 -1.1638530512297E-01
76  7.5000000000000E-01  1.3670914561650E+00 -5.5262908806759E-02
77  7.6000000000000E-01  1.3377061044580E+00  1.0564186037462E-02
78  7.7000000000000E-01  1.3064568207765E+00  7.9587609910422E-02
79  7.8000000000000E-01  1.2736986506591E+00  1.5022123882184E-01
80  7.9000000000000E-01  1.2397970078957E+00  2.2083177286528E-01
81  8.0000000000000E-01  1.2051214459779E+00  2.8977053039588E-01
82  8.1000000000000E-01  1.1700393281083E+00  3.5540586420380E-01
83  8.2000000000000E-01  1.1349095120072E+00  4.1615558919498E-01
84  8.3000000000000E-01  1.1000761664273E+00  4.7051880563039E-01
85  8.4000000000000E-01  1.0658628347591E+00  5.1710650812233E-01
86  8.5000000000000E-01  1.0325668573975E+00  5.5467038831060E-01
87  8.6000000000000E-01  1.0004542587002E+00  5.8212926818570E-01
88  8.7000000000000E-01  9.6975519649245E-01  5.9859264092391E-01
89  8.8000000000000E-01  9.4066006229137E-01  6.0338084616813E-01
90  8.9000000000000E-01  9.1331630891942E-01  5.9604146605292E-01
91  9.0000000000000E-01  8.8782606914075E-01  5.7636159587230E-01
92  9.1000000000000E-01  8.6424461463346E-01  5.4437571790194E-01
93  9.2000000000000E-01  8.4257968926160E-01  5.0036898715044E-01
94  9.3000000000000E-01  8.2279173451623E-01  4.4487582225121E-01
95  9.4000000000000E-01  8.0479500845701E-01  3.7867378173852E-01
96  9.5000000000000E-01  7.8845958280867E-01  3.0277279397587E-01
97  9.6000000000000E-01  7.7361418636868E-01  2.1839989634707E-01
98  9.7000000000000E-01  7.6004984687372E-01  1.2697972434074E-01
99  9.8000000000000E-01  7.4752426825572E-01  3.0111072253701E-02
100  9.9000000000000E-01  7.3576686609228E-01 -7.0460077181130E-02
101  1.0000000000000E+00  7.2448437127832E-01 -1.7287058823594E-01
102  1.0100000000000E+00  7.1336690078161E-01 -2.7517274630321E-01
103  1.0200000000000E+00  7.0209438500215E-01 -3.7536879331783E-01
104  1.0300000000000E+00  6.9034323391849E-01 -4.7144680657369E-01
105  1.0400000000000E+00  6.7779311902755E-01 -5.6141727373670E-01
106  1.0500000000000E+00  6.6413374517279E-01 -6.4334969942348E-01
107  1.0600000000000E+00  6.4907148576916E-01 -7.1540857347694E-01
108  1.0700000000000E+00  6.3233575670749E-01 -7.7588803825486E-01
109  1.0800000000000E+00  6.1368500830678E-01 -8.2324461163234E-01
110  1.0900000000000E+00  5.9291222105582E-01 -8.5612735390350E-01
111  1.1000000000000E+00  5.6984979937643E-01 -8.7340490951011E-01
112  1.1100000000000E+00  5.4437376816673E-01 -8.7418890810775E-01
113  1.1200000000000E+00  5.1640718919000E-01 -8.5785327261343E-01
114  1.1300000000000E+00  4.8592272828990E-01 -8.2404905367104E-01
115  1.1400000000000E+00  4.5294431965135E-01 -7.7271448896019E-01
116  1.1500000000000E+00  4.1754788962032E-01 -7.0408007057124E-01
117  1.1600000000000E+00  3.7986111964286E-01 -6.1866849270505E-01
118  1.1700000000000E+00  3.4006224537844E-01 -5.1728944364772E-01
119  1.1800000000000E+00  2.9837790662247E-01 -4.0102929841391E-01
120  1.1900000000000E+00  2.5508008010748E-01 -2.7123586045942E-01
121  1.2000000000000E+00  2.1048214404678E-01 -1.2949838982284E-01
122  1.2100000000000E+00  1.6493413937763E-01  2.2376759337039E-02
123  1.2200000000000E+00  1.1881730745791E-01  1.8239448973518E-01
124  1.2300000000000E+00  7.2537997479658E-02  3.4840282575032E-01
125  1.2400000000000E+00  2.6521048635077E-02  5.1812775344484E-01
126  1.2500000000000E+00 -1.8797238039235E-02  6.8921044302828E-01
127  1.2600000000000E+00 -6.2976415339932E-02  8.5924621706390E-01
128  1.2700000000000E+00 -1.0557936469598E-01  1.0258245955253E+00
129  1.2800000000000E+00 -1.4617979835598E-01  1.1865697283016E+00
130  1.2900000000000E+00 -1.8436965628966E-01  1.3391805176015E+00
131  1.3000000000000E+00 -2.1976626658005E-01  1.4814697369735E+00
132  1.3100000000000E+00 -2.5201914186853E-01  1.6114014700462E+00
133  1.3200000000000E+00 -2.8081629052699E-01  1.7271262205809E+00
134  1.3300000000000E+00 -3.0588992949810E-01  1.8270130851732E+00