Pm    ONCVPSP-4.0.1  r_core=   2.00379   1.60593   1.91015   1.60593
61.0000     15.0000      250626    zatom,zion,pspd
8      11   3     4   600     0    pspcod,pspxc,lmax,lloc,mmax,r2well
5.99000000 25.90000000  0.00000000    rchrg fchrg qchrg
2     2     2     2     0    nproj
1     1           extension_switch
0                         7.1089419580439E+00  4.8063801581347E-01
1  0.0000000000000E+00  7.4519779236226E-11 -3.3243642560965E-10
2  1.0000000000000E-02  3.7694852664130E-02 -3.6824899648586E-03
3  2.0000000000000E-02  7.5377166134996E-02 -7.4125769796140E-03
4  3.0000000000000E-02  1.1303421507985E-01 -1.1237115111501E-02
5  4.0000000000000E-02  1.5065290390563E-01 -1.5201480665010E-02
6  5.0000000000000E-02  1.8821958665620E-01 -1.9348853721763E-02
7  6.0000000000000E-02  2.2571989288952E-01 -2.3719523948126E-02
8  7.0000000000000E-02  2.6313856143941E-01 -2.8350228366110E-02
9  8.0000000000000E-02  3.0045928389292E-01 -3.3273528450637E-02
10  9.0000000000000E-02  3.3766455952159E-01 -3.8517233507078E-02
11  1.0000000000000E-01  3.7473556329738E-01 -4.4103876800876E-02
12  1.1000000000000E-01  4.1165202849971E-01 -5.0050250361095E-02
13  1.2000000000000E-01  4.4839214528247E-01 -5.6367003767452E-02
14  1.3000000000000E-01  4.8493247641856E-01 -6.3058311561554E-02
15  1.4000000000000E-01  5.2124789127703E-01 -7.0121613204844E-02
16  1.5000000000000E-01  5.5731151891537E-01 -7.7547428745105E-02
17  1.6000000000000E-01  5.9309472098823E-01 -8.5319252558002E-02
18  1.7000000000000E-01  6.2856708498619E-01 -9.3413526708092E-02
19  1.8000000000000E-01  6.6369643812538E-01 -1.0179969463338E-01
20  1.9000000000000E-01  6.9844888201295E-01 -1.1044033500731E-01
21  2.0000000000000E-01  7.3278884801592E-01 -1.1929137478067E-01
22  2.1000000000000E-01  7.6667917306457E-01 -1.2830237956216E-01
23  2.2000000000000E-01  8.0008119542715E-01 -1.3741691866877E-01
24  2.3000000000000E-01  8.3295486980269E-01 -1.4657300137425E-01
25  2.4000000000000E-01  8.6525890089469E-01 -1.5570358011421E-01
26  2.5000000000000E-01  8.9695089445241E-01 -1.6473711567760E-01
27  2.6000000000000E-01  9.2798752459984E-01 -1.7359819873471E-01
28  2.7000000000000E-01  9.5832471611646E-01 -1.8220822142730E-01
29  2.8000000000000E-01  9.8791784019109E-01 -1.9048609218565E-01
30  2.9000000000000E-01  1.0167219220407E+00 -1.9834898644414E-01
31  3.0000000000000E-01  1.0446918586723E+00 -2.0571312550873E-01
32  3.1000000000000E-01  1.0717826449669E+00 -2.1249457548957E-01
33  3.2000000000000E-01  1.0979496061855E+00 -2.1861005795481E-01
34  3.3000000000000E-01  1.1231486349334E+00 -2.2397776379057E-01
35  3.4000000000000E-01  1.1473364305735E+00 -2.2851816166838E-01
36  3.5000000000000E-01  1.1704707390558E+00 -2.3215479252745E-01
37  3.6000000000000E-01  1.1925105911237E+00 -2.3481504157537E-01
38  3.7000000000000E-01  1.2134165368687E+00 -2.3643087949556E-01
39  3.8000000000000E-01  1.2331508746395E+00 -2.3693956482375E-01
40  3.9000000000000E-01  1.2516778723618E+00 -2.3628429981438E-01
41  4.0000000000000E-01  1.2689639793922E+00 -2.3441483255955E-01
42  4.1000000000000E-01  1.2849780271190E+00 -2.3128799864367E-01
43  4.2000000000000E-01  1.2996914166240E+00 -2.2686819621034E-01
44  4.3000000000000E-01  1.3130782918401E+00 -2.2112778897998E-01
45  4.4000000000000E-01  1.3251156967702E+00 -2.1404743248032E-01
46  4.5000000000000E-01  1.3357837154843E+00 -2.0561631952900E-01
47  4.6000000000000E-01  1.3450655937643E+00 -1.9583234183304E-01
48  4.7000000000000E-01  1.3529478414403E+00 -1.8470216543179E-01
49  4.8000000000000E-01  1.3594203146349E+00 -1.7224121860372E-01
50  4.9000000000000E-01  1.3644762773189E+00 -1.5847359177000E-01
51  5.0000000000000E-01  1.3681124417680E+00 -1.4343184985286E-01
52  5.1000000000000E-01  1.3703289877035E+00 -1.2715675847284E-01
53  5.2000000000000E-01  1.3711295600930E+00 -1.0969692628722E-01
54  5.3000000000000E-01  1.3705212457765E+00 -9.1108366672750E-02
55  5.4000000000000E-01  1.3685145292768E+00 -7.1453982828881E-02
56  5.5000000000000E-01  1.3651232283324E+00 -5.0802981214833E-02
57  5.6000000000000E-01  1.3603644098754E+00 -2.9230219024922E-02
58  5.7000000000000E-01  1.3542582873403E+00 -6.8154921436819E-03
59  5.8000000000000E-01  1.3468281003553E+00  1.6357229302948E-02
60  5.9000000000000E-01  1.3380999780128E+00  4.0200610078901E-02
61  6.0000000000000E-01  1.3281027870530E+00  6.4624795402307E-02
62  6.1000000000000E-01  1.3168679664153E+00  8.9538284247216E-02
63  6.2000000000000E-01  1.3044293497181E+00  1.1484882132977E-01
64  6.3000000000000E-01  1.2908229773190E+00  1.4046429846011E-01
65  6.4000000000000E-01  1.2760868996777E+00  1.6629365577117E-01
66  6.5000000000000E-01  1.2602609737996E+00  1.9224777326345E-01
67  6.6000000000000E-01  1.2433866545759E+00  2.1824034313257E-01
68  6.7000000000000E-01  1.2255067828517E+00  2.4418871347218E-01
69  6.8000000000000E-01  1.2066653720557E+00  2.7001469417102E-01
70  6.9000000000000E-01  1.1869073952047E+00  2.9564531614506E-01
71  7.0000000000000E-01  1.1662785740600E+00  3.2101353546147E-01
72  7.1000000000000E-01  1.1448251721608E+00  3.4605887441777E-01
73  7.2000000000000E-01  1.1225937933849E+00  3.7072799223048E-01
74  7.3000000000000E-01  1.0996311876069E+00  3.9497517865812E-01
75  7.4000000000000E-01  1.0759840649175E+00  4.1876276462544E-01
76  7.5000000000000E-01  1.0516989197583E+00  4.4206144472418E-01
77  7.6000000000000E-01  1.0268218661990E+00  4.6485050732816E-01
78  7.7000000000000E-01  1.0013984854471E+00  4.8711796897327E-01
79  7.8000000000000E-01  9.7547368653804E-01  5.0886061060081E-01
80  7.9000000000000E-01  9.4909158099949E-01  5.3008391424144E-01
81  8.0000000000000E-01  9.2229537212955E-01  5.5080189971129E-01
82  8.1000000000000E-01  8.9512725936632E-01  5.7103686189536E-01
83  8.2000000000000E-01  8.6762835806617E-01  5.9081901019349E-01
84  8.3000000000000E-01  8.3983863484649E-01  6.1018601268975E-01
85  8.4000000000000E-01  8.1179685848953E-01  6.2918244857141E-01
86  8.5000000000000E-01  7.8354056624876E-01  6.4785917325139E-01
87  8.6000000000000E-01  7.5510604524954E-01  6.6627260153693E-01
88  8.7000000000000E-01  7.2652832853299E-01  6.8448391502198E-01
89  8.8000000000000E-01  6.9784120515762E-01  7.0255820065704E-01
90  8.9000000000000E-01  6.6907724364904E-01  7.2056352815823E-01
91  9.0000000000000E-01  6.4026782797384E-01  7.3856997455304E-01
92  9.1000000000000E-01  6.1144320511200E-01  7.5664860471505E-01
93  9.2000000000000E-01  5.8263254321297E-01  7.7487041721172E-01
94  9.3000000000000E-01  5.5386399924340E-01  7.9330526517421E-01
95  9.4000000000000E-01  5.2516479497245E-01  8.1202076219156E-01
96  9.5000000000000E-01  4.9656130009010E-01  8.3108118343657E-01
97  9.6000000000000E-01  4.6807912121866E-01  8.5054637234177E-01
98  9.7000000000000E-01  4.3974319555414E-01  8.7047066316783E-01
99  9.8000000000000E-01  4.1157788786405E-01  8.9090182974034E-01
100  9.9000000000000E-01  3.8360708957007E-01  9.1188007048157E-01
101  1.0000000000000E+00  3.5585431865618E-01  9.3343703963397E-01
102  1.0100000000000E+00  3.2834281916634E-01  9.5559493426568E-01
103  1.0200000000000E+00  3.0109565908693E-01  9.7836564627503E-01
104  1.0300000000000E+00  2.7413582544870E-01  1.0017499881726E+00
105  1.0400000000000E+00  2.4748631552835E-01  1.0257370009275E+00
106  1.0500000000000E+00  2.2117022308023E-01  1.0503033516240E+00
107  1.0600000000000E+00  1.9521081858209E-01  1.0754128280942E+00
108  1.0700000000000E+00  1.6963162253417E-01  1.1010159370817E+00
109  1.0800000000000E+00  1.4445647090687E-01  1.1270496118537E+00
110  1.0900000000000E+00  1.1970957188664E-01  1.1534370345282E+00
111  1.1000000000000E+00  9.5415553122711E-02  1.1800875777246E+00
112  1.1100000000000E+00  7.1599498725965E-02  1.2068968694766E+00
113  1.1200000000000E+00  4.8286975316469E-02  1.2337469846970E+00
114  1.1300000000000E+00  2.5504046455738E-02  1.2605067658241E+00
115  1.1400000000000E+00  3.2772748342044E-03  1.2870322746478E+00
116  1.1500000000000E+00 -1.8366288387111E-02  1.3131673766880E+00
117  1.1600000000000E+00 -3.9399127658802E-02  1.3387444588909E+00
118  1.1700000000000E+00 -5.9793301109465E-02  1.3635852808162E+00
119  1.1800000000000E+00 -7.9520493143273E-02  1.3875019589131E+00
120  1.1900000000000E+00 -9.8552082105577E-02  1.4102980829059E+00
121  1.2000000000000E+00 -1.1685922354504E-01  1.4317699627520E+00
122  1.2100000000000E+00 -1.3441294959195E-01  1.4517080040562E+00
123  1.2200000000000E+00 -1.5118428496130E-01  1.4698982092428E+00
124  1.2300000000000E+00 -1.6714438007216E-01  1.4861238011712E+00
125  1.2400000000000E+00 -1.8226466174969E-01  1.5001669652273E+00
126  1.2500000000000E+00 -1.9651700193866E-01  1.5118107052124E+00
127  1.2600000000000E+00 -2.0987390480333E-01  1.5208408075630E+00
128  1.2700000000000E+00 -2.2230871251443E-01  1.5270479075544E+00
129  1.2800000000000E+00 -2.3379582992428E-01  1.5302296501453E+00
130  1.2900000000000E+00 -2.4431096820070E-01  1.5301929369772E+00
131  1.3000000000000E+00 -2.5383140732446E-01  1.5267562497399E+00
132  1.3100000000000E+00 -2.6233627714773E-01  1.5197520386203E+00
133  1.3200000000000E+00 -2.6980685645475E-01  1.5090291628251E+00
134  1.3300000000000E+00 -2.7622688915654E-01  1.4944553681991E+00
135  1.3400000000000E+00 -2.8158291638282E-01  1.4759197847139E+00
136  1.3500000000000E+00 -2.8586462279479E-01  1.4533354240203E+00
137  1.3600000000000E+00 -2.8906519493208E-01  1.4266416543471E+00
138  1.3700000000000E+00 -2.9118168881204E-01  1.3958066267145E+00
139  1.3800000000000E+00 -2.9221540332039E-01  1.3608296227261E+00
140  1.3900000000000E+00 -2.9217225514962E-01  1.3217432899966E+00
141  1.4000000000000E+00 -2.9106315016078E-01  1.2786157266131E+00
142  1.4100000000000E+00 -2.8890434504861E-01  1.2315523708060E+00
143  1.4200000000000E+00 -2.8571779207449E-01  1.1806976462216E+00
144  1.4300000000000E+00 -2.8153145839139E-01  1.1262363067972E+00
145  1.4400000000000E+00 -2.7637961010020E-01  1.0683944181531E+00
146  1.4500000000000E+00 -2.7030304965611E-01  1.0074399046761E+00
147  1.4600000000000E+00 -2.6334929356391E-01  9.4368258294705E-01
148  1.4700000000000E+00 -2.5557267545707E-01  8.7747359285578E-01
149  1.4800000000000E+00 -2.4703435764552E-01  8.0920412760988E-01
150  1.4900000000000E+00 -2.3780223201923E-01  7.3930335279951E-01
151  1.5000000000000E+00 -2.2795068880385E-01  6.6823539267282E-01
152  1.5100000000000E+00 -2.1756022907858E-01  5.9649524880831E-01
153  1.5200000000000E+00 -2.0671689416015E-01  5.2460350230850E-01
154  1.5300000000000E+00 -1.9551148192909E-01  4.5309963547101E-01
155  1.5400000000000E+00 -1.8403851690928E-01  3.8253379253901E-01
156  1.5500000000000E+00 -1.7239493739907E-01  3.1345678153630E-01
157  1.5600000000000E+00 -1.6067845916879E-01  2.4640810023021E-01
158  1.5700000000000E+00 -1.4898557120602E-01  1.8190174904287E-01
159  1.5800000000000E+00 -1.3740911354300E-01  1.2040956330966E-01
160  1.5900000000000E+00 -1.2603538216772E-01  6.2341772818370E-02
161  1.6000000000000E+00 -1.1494078000622E-01  8.0250790642864E-03
162  1.6100000000000E+00 -1.0418752255085E-01 -4.2325426652613E-02
163  1.6200000000000E+00 -9.3822575417383E-02 -8.8607556326765E-02
164  1.6300000000000E+00 -8.3884166079739E-02 -1.3077516852279E-01
165  1.6400000000000E+00 -7.4406040360139E-02 -1.6880291989793E-01
166  1.6500000000000E+00 -6.5417145906214E-02 -2.0268833541924E-01
167  1.6600000000000E+00 -5.6941618925656E-02 -2.3245151159335E-01
168  1.6700000000000E+00 -4.8998744904893E-02 -2.5813515912372E-01
169  1.6800000000000E+00 -4.1602955515211E-02 -2.7980446852319E-01
170  1.6900000000000E+00 -3.4763864572891E-02 -2.9754677863507E-01
171  1.7000000000000E+00 -2.8486341456754E-02 -3.1147106067890E-01
172  1.7100000000000E+00 -2.2770621543098E-02 -3.2170722008988E-01
173  1.7200000000000E+00 -1.7612452888704E-02 -3.2840522006644E-01
174  1.7300000000000E+00 -1.3003278061422E-02 -3.3173403241699E-01
175  1.7400000000000E+00 -8.9304497093394E-03 -3.3188042282635E-01
176  1.7500000000000E+00 -5.3774781089025E-03 -3.2904757950952E-01
177  1.7600000000000E+00 -2.3243087327423E-03 -3.2345359505219E-01
178  1.7700000000000E+00  2.5237276294270E-04 -3.1532981508889E-01
179  1.7800000000000E+00  2.3788099780459E-03 -3.0491906194600E-01
180  1.7900000000000E+00  4.0838230766411E-03 -2.9247375172186E-01
181  1.8000000000000E+00  5.3984381710823E-03 -2.7825392809479E-01
182  1.8100000000000E+00  6.3554979509367E-03 -2.6252520183399E-01
183  1.8200000000000E+00  6.9892621712546E-03 -2.4555664842617E-01
184  1.8300000000000E+00  7.3349977666973E-03 -2.2761865634802E-01
185  1.8400000000000E+00  7.4285636664809E-03 -2.0898075414670E-01
186  1.8500000000000E+00  7.3059936955053E-03 -1.8990943298107E-01
187  1.8600000000000E+00  7.0030812671551E-03 -1.7066598338557E-01
188  1.8700000000000E+00  6.5549717343000E-03 -1.5150437322566E-01
189  1.8800000000000E+00  5.9957447012338E-03 -1.3266910401849E-01
190  1.8900000000000E+00  5.3580747219290E-03 -1.1439338369915E-01
191  1.9000000000000E+00  4.6728031799037E-03 -9.6897003799084E-02
192  1.9100000000000E+00  3.9676245237438E-03 -8.0380805199594E-02
193  1.9200000000000E+00  3.2660727466001E-03 -6.5022213783848E-02
194  1.9300000000000E+00  2.5924792556572E-03 -5.0993894200478E-02
195  1.9400000000000E+00  1.9684433898082E-03 -3.8450121740530E-02
196  1.9500000000000E+00  1.4119682057016E-03 -2.7523154588752E-02
197  1.9600000000000E+00  9.3738635950463E-04 -1.8322630925886E-02
198  1.9700000000000E+00  5.5522332640462E-04 -1.0935918222259E-02
199  1.9800000000000E+00  2.7173825921541E-04 -5.4204014647116E-03
200  1.9900000000000E+00  8.8983606457980E-05 -1.8066753576057E-03
201  2.0000000000000E+00  9.6621469771426E-06 -2.0120288703016E-04
202  2.0100000000000E+00 -2.9479601617257E-06  6.2022590888290E-05
203  2.0200000000000E+00  9.3052980782511E-07 -1.9282407292839E-05
204  2.03 -0.  0.
205  2.04 -0.  0.
206  2.05 -0. -0.
207  2.06  0.  0.
208  2.07  0.  0.
209  2.08  0.  0.
210  2.09  0.  0.
211  2.10  0.  0.
212  2.11  0.  0.
213  2.12  0.  0.
214  2.13  0.  0.
215  2.14  0.  0.
216  2.15  0.  0.
217  2.16  0.  0.
218  2.17  0.  0.
219  2.18  0.  0.
220  2.19  0.  0.
221  2.20  0.  0.
222  2.21  0.  0.
223  2.22  0.  0.
224  2.23  0.  0.
225  2.24  0.  0.
226  2.25  0.  0.
227  2.26  0.  0.
228  2.27  0.  0.
229  2.28  0.  0.
230  2.29  0.  0.
231  2.30  0.  0.
232  2.31  0.  0.
233  2.32  0.  0.
234  2.33  0.  0.
235  2.34  0.  0.
236  2.35  0.  0.
237  2.36  0.  0.
238  2.37  0.  0.
239  2.38  0.  0.
240  2.39  0.  0.
241  2.40  0.  0.
242  2.41  0.  0.
243  2.42  0.  0.
244  2.43  0.  0.
245  2.44  0.  0.
246  2.45  0.  0.
247  2.46  0.  0.
248  2.47  0.  0.
249  2.48  0.  0.
250  2.49  0.  0.
251  2.50  0.  0.
252  2.51  0.  0.
253  2.52  0.  0.
254  2.53  0.  0.
255  2.54  0.  0.
256  2.55  0.  0.
257  2.56  0.  0.
258  2.57  0.  0.
259  2.58  0.  0.
260  2.59  0.  0.
261  2.60  0.  0.
262  2.61  0.  0.
263  2.62  0.  0.
264  2.63  0.  0.
265  2.64  0.  0.
266  2.65  0.  0.
267  2.66  0.  0.
268  2.67  0.  0.
269  2.68  0.  0.
270  2.69  0.  0.
271  2.70  0.  0.
272  2.71  0.  0.
273  2.72  0.  0.
274  2.73  0.  0.
275  2.74  0.  0.
276  2.75  0.  0.
277  2.76  0.  0.
278  2.77  0.  0.
279  2.78  0.  0.
280  2.79  0.  0.
281  2.80  0.  0.
282  2.81  0.  0.
283  2.82  0.  0.
284  2.83  0.  0.
285  2.84  0.  0.
286  2.85  0.  0.
287  2.86  0.  0.
288  2.87  0.  0.
289  2.88  0.  0.
290  2.89  0.  0.
291  2.90  0.  0.
292  2.91  0.  0.
293  2.92  0.  0.
294  2.93  0.  0.
295  2.94  0.  0.
296  2.95  0.  0.
297  2.96  0.  0.
298  2.97  0.  0.
299  2.98  0.  0.
300  2.99  0.  0.
301  3.00  0.  0.
302  3.01  0.  0.
303  3.02  0.  0.
304  3.03  0.  0.
305  3.04  0.  0.
306  3.05  0.  0.
307  3.06  0.  0.
308  3.07  0.  0.
309  3.08  0.  0.
310  3.09  0.  0.
311  3.10  0.  0.
312  3.11  0.  0.
313  3.12  0.  0.
314  3.13  0.  0.
315  3.14  0.  0.
316  3.15  0.  0.
317  3.16  0.  0.
318  3.17  0.  0.
319  3.18  0.  0.
320  3.19  0.  0.
321  3.20  0.  0.
322  3.21  0.  0.
323  3.22  0.  0.
324  3.23  0.  0.
325  3.24  0.  0.
326  3.25  0.  0.
327  3.26  0.  0.
328  3.27  0.  0.
329  3.28  0.  0.
330  3.29  0.  0.
331  3.30  0.  0.
332  3.31  0.  0.
333  3.32  0.  0.
334  3.33  0.  0.
335  3.34  0.  0.
336  3.35  0.  0.
337  3.36  0.  0.
338  3.37  0.  0.
339  3.38  0.  0.
340  3.39  0.  0.
341  3.40  0.  0.
342  3.41  0.  0.
343  3.42  0.  0.
344  3.43  0.  0.
345  3.44  0.  0.
346  3.45  0.  0.
347  3.46  0.  0.
348  3.47  0.  0.
349  3.48  0.  0.
350  3.49  0.  0.
351  3.50  0.  0.
352  3.51  0.  0.
353  3.52  0.  0.
354  3.53  0.  0.
355  3.54  0.  0.
356  3.55  0.  0.
357  3.56  0.  0.
358  3.57  0.  0.
359  3.58  0.  0.
360  3.59  0.  0.
361  3.60  0.  0.
362  3.61  0.  0.
363  3.62  0.  0.
364  3.63  0.  0.
365  3.64  0.  0.
366  3.65  0.  0.
367  3.66  0.  0.
368  3.67  0.  0.
369  3.68  0.  0.
370  3.69  0.  0.
371  3.70  0.  0.
372  3.71  0.  0.
373  3.72  0.  0.
374  3.73  0.  0.
375  3.74  0.  0.
376  3.75  0.  0.
377  3.76  0.  0.
378  3.77  0.  0.
379  3.78  0.  0.
380  3.79  0.  0.
381  3.80  0.  0.
382  3.81  0.  0.
383  3.82  0.  0.
384  3.83  0.  0.
385  3.84  0.  0.
386  3.85  0.  0.
387  3.86  0.  0.
388  3.87  0.  0.
389  3.88  0.  0.
390  3.89  0.  0.
391  3.90  0.  0.
392  3.91  0.  0.
393  3.92  0.  0.
394  3.93  0.  0.
395  3.94  0.  0.
396  3.95  0.  0.
397  3.96  0.  0.
398  3.97  0.  0.
399  3.98  0.  0.
400  3.99  0.  0.
401  4.00  0.  0.
402  4.01  0.  0.
403  4.02  0.  0.
404  4.03  0.  0.
405  4.04  0.  0.
406  4.05  0.  0.
407  4.06  0.  0.
408  4.07  0.  0.
409  4.08  0.  0.
410  4.09  0.  0.
411  4.10  0.  0.
412  4.11  0.  0.
413  4.12  0.  0.
414  4.13  0.  0.
415  4.14  0.  0.
416  4.15  0.  0.
417  4.16  0.  0.
418  4.17  0.  0.
419  4.18  0.  0.
420  4.19  0.  0.
421  4.20  0.  0.
422  4.21  0.  0.
423  4.22  0.  0.
424  4.23  0.  0.
425  4.24  0.  0.
426  4.25  0.  0.
427  4.26  0.  0.
428  4.27  0.  0.
429  4.28  0.  0.
430  4.29  0.  0.
431  4.30  0.  0.
432  4.31  0.  0.
433  4.32  0.  0.
434  4.33  0.  0.
435  4.34  0.  0.
436  4.35  0.  0.
437  4.36  0.  0.
438  4.37  0.  0.
439  4.38  0.  0.
440  4.39  0.  0.
441  4.40  0.  0.
442  4.41  0.  0.
443  4.42  0.  0.
444  4.43  0.  0.
445  4.44  0.  0.
446  4.45  0.  0.
447  4.46  0.  0.
448  4.47  0.  0.
449  4.48  0.  0.
450  4.49  0.  0.
451  4.50  0.  0.
452  4.51  0.  0.
453  4.52  0.  0.
454  4.53  0.  0.
455  4.54  0.  0.
456  4.55  0.  0.
457  4.56  0.  0.
458  4.57  0.  0.
459  4.58  0.  0.
460  4.59  0.  0.
461  4.60  0.  0.
462  4.61  0.  0.
463  4.62  0.  0.
464  4.63  0.  0.
465  4.64  0.  0.
466  4.65  0.  0.
467  4.66  0.  0.
468  4.67  0.  0.
469  4.68  0.  0.
470  4.69  0.  0.
471  4.70  0.  0.
472  4.71  0.  0.
473  4.72  0.  0.
474  4.73  0.  0.
475  4.74  0.  0.
476  4.75  0.  0.
477  4.76  0.  0.
478  4.77  0.  0.
479  4.78  0.  0.
480  4.79  0.  0.
481  4.80  0.  0.
482  4.81  0.  0.
483  4.82  0.  0.
484  4.83  0.  0.
485  4.84  0.  0.
486  4.85  0.  0.
487  4.86  0.  0.
488  4.87  0.  0.
489  4.88  0.  0.
490  4.89  0.  0.
491  4.90  0.  0.
492  4.91  0.  0.
493  4.92  0.  0.
494  4.93  0.  0.
495  4.94  0.  0.
496  4.95  0.  0.
497  4.96  0.  0.
498  4.97  0.  0.
499  4.98  0.  0.
500  4.99  0.  0.
501  5.00  0.  0.
502  5.01  0.  0.
503  5.02  0.  0.
504  5.03  0.  0.
505  5.04  0.  0.
506  5.05  0.  0.
507  5.06  0.  0.
508  5.07  0.  0.
509  5.08  0.  0.
510  5.09  0.  0.
511  5.10  0.  0.
512  5.11  0.  0.
513  5.12  0.  0.
514  5.13  0.  0.
515  5.14  0.  0.
516  5.15  0.  0.
517  5.16  0.  0.
518  5.17  0.  0.
519  5.18  0.  0.
520  5.19  0.  0.
521  5.20  0.  0.
522  5.21  0.  0.
523  5.22  0.  0.
524  5.23  0.  0.
525  5.24  0.  0.
526  5.25  0.  0.
527  5.26  0.  0.
528  5.27  0.  0.
529  5.28  0.  0.
530  5.29  0.  0.
531  5.30  0.  0.
532  5.31  0.  0.
533  5.32  0.  0.
534  5.33  0.  0.
535  5.34  0.  0.
536  5.35  0.  0.
537  5.36  0.  0.
538  5.37  0.  0.
539  5.38  0.  0.
540  5.39  0.  0.
541  5.40  0.  0.
542  5.41  0.  0.
543  5.42  0.  0.
544  5.43  0.  0.
545  5.44  0.  0.
546  5.45  0.  0.
547  5.46  0.  0.
548  5.47  0.  0.
549  5.48  0.  0.
550  5.49  0.  0.
551  5.50  0.  0.
552  5.51  0.  0.
553  5.52  0.  0.
554  5.53  0.  0.
555  5.54  0.  0.
556  5.55  0.  0.
557  5.56  0.  0.
558  5.57  0.  0.
559  5.58  0.  0.
560  5.59  0.  0.
561  5.60  0.  0.
562  5.61  0.  0.
563  5.62  0.  0.
564  5.63  0.  0.
565  5.64  0.  0.
566  5.65  0.  0.
567  5.66  0.  0.
568  5.67  0.  0.
569  5.68  0.  0.
570  5.69  0.  0.
571  5.70  0.  0.
572  5.71  0.  0.
573  5.72  0.  0.
574  5.73  0.  0.
575  5.74  0.  0.
576  5.75  0.  0.
577  5.76  0.  0.
578  5.77  0.  0.
579  5.78  0.  0.
580  5.79  0.  0.
581  5.80  0.  0.
582  5.81  0.  0.
583  5.82  0.  0.
584  5.83  0.  0.
585  5.84  0.  0.
586  5.85  0.  0.
587  5.86  0.  0.
588  5.87  0.  0.
589  5.88  0.  0.
590  5.89  0.  0.
591  5.90  0.  0.
592  5.91  0.  0.
593  5.92  0.  0.
594  5.93  0.  0.
595  5.94  0.  0.
596  5.95  0.  0.
597  5.96  0.  0.
598  5.97  0.  0.
599  5.98  0.  0.
600  5.99  0.  0.
1                         4.8360246776953E+00  5.3219875808607E-01
1  0.0000000000000E+00  1.0230777641729E-08 -5.8876971714694E-08
2  1.0000000000000E-02  1.3761460536043E-03 -3.3548233734705E-03
3  2.0000000000000E-02  5.4884780318550E-03 -1.3334757244767E-02
4  3.0000000000000E-02  1.2288982740650E-02 -2.9687949553451E-02
5  4.0000000000000E-02  2.1698650007786E-02 -5.2000467851014E-02
6  5.0000000000000E-02  3.3608969431096E-02 -7.9704910214013E-02
7  6.0000000000000E-02  4.7883984286193E-02 -1.1209222177471E-01
8  7.0000000000000E-02  6.4362862021503E-02 -1.4832648363574E-01
9  8.0000000000000E-02  8.2862930537474E-02 -1.8746238205843E-01
10  9.0000000000000E-02  1.0318312020119E-01 -2.2846501255486E-01
11  1.0000000000000E-01  1.2510774346752E-01 -2.7023162690309E-01
12  1.1000000000000E-01  1.4841053722123E-01 -3.1161489204341E-01
13  1.2000000000000E-01  1.7285888765371E-01 -3.5144719906416E-01
14  1.3000000000000E-01  1.9821815374894E-01 -3.8856553864982E-01
15  1.4000000000000E-01  2.2425600335051E-01 -4.2183644687859E-01
16  1.5000000000000E-01  2.5074667535949E-01 -4.5018052237675E-01
17  1.6000000000000E-01  2.7747508288378E-01 -4.7259602263986E-01
18  1.7000000000000E-01  3.0424067510211E-01 -4.8818106370605E-01
19  1.8000000000000E-01  3.3086098016861E-01 -4.9615397302391E-01
20  1.9000000000000E-01  3.5717475758160E-01 -4.9587137982684E-01
21  2.0000000000000E-01  3.8304469596121E-01 -4.8684366997204E-01
22  2.1000000000000E-01  4.0835960098198E-01 -4.6874748222796E-01
23  2.2000000000000E-01  4.3303602812380E-01 -4.4143497946475E-01
24  2.3000000000000E-01  4.5701932574892E-01 -4.0493969005251E-01
25  2.4000000000000E-01  4.8028406557808E-01 -3.5947878083665E-01
26  2.5000000000000E-01  5.0283384970384E-01 -3.0545169208292E-01
27  2.6000000000000E-01  5.2470049561318E-01 -2.4343513545725E-01
28  2.7000000000000E-01  5.4594261305601E-01 -1.7417452707541E-01
29  2.8000000000000E-01  5.6664359875316E-01 -9.8571997568442E-02
30  2.9000000000000E-01  5.8690908665009E-01 -1.7671188613802E-02
31  3.0000000000000E-01  6.0686390246258E-01  6.7360890821081E-02
32  3.1000000000000E-01  6.2664858141105E-01  1.5525461642937E-01
33  3.2000000000000E-01  6.4641551709995E-01  2.4466072386609E-01
34  3.3000000000000E-01  6.6632481728720E-01  3.3417507694556E-01
35  3.4000000000000E-01  6.8653994864826E-01  4.2236476071404E-01
36  3.5000000000000E-01  7.0722325743826E-01  5.0779500261681E-01
37  3.6000000000000E-01  7.2853145609355E-01  5.8905640561893E-01
38  3.7000000000000E-01  7.5061116721794E-01  6.6479196760187E-01
39  3.8000000000000E-01  7.7359461603336E-01  7.3372336187577E-01
40  3.9000000000000E-01  7.9759556023300E-01  7.9467596426932E-01
41  4.0000000000000E-01  8.2270554228865E-01  8.4660213283536E-01
42  4.1000000000000E-01  8.4899054369507E-01  8.8860227640807E-01
43  4.2000000000000E-01  8.7648811347837E-01  9.1994328754356E-01
44  4.3000000000000E-01  9.0520503468016E-01  9.4007396307463E-01
45  4.4000000000000E-01  9.3511558260879E-01  9.4863709075173E-01
46  4.5000000000000E-01  9.6616041760513E-01  9.4547794221715E-01
47  4.6000000000000E-01  9.9824614310761E-01  9.3064897972983E-01
48  4.7000000000000E-01  1.0312455471411E+00  9.0441065537594E-01
49  4.8000000000000E-01  1.0649985322359E+00  8.6722825563117E-01
50  4.9000000000000E-01  1.0993137254533E+00  8.1976481968815E-01
51  5.0000000000000E-01  1.1339707469098E+00  7.6287023549609E-01
52  5.1000000000000E-01  1.1687231022020E+00  6.9756669153737E-01
53  5.2000000000000E-01  1.2033016516985E+00  6.2503073356691E-01
54  5.3000000000000E-01  1.2374185980169E+00  5.4657224248690E-01
55  5.4000000000000E-01  1.2707719223798E+00  4.6361071091758E-01
56  5.5000000000000E-01  1.3030501911527E+00  3.7764925064560E-01
57  5.6000000000000E-01  1.3339376458928E+00  2.9024680989788E-01
58  5.7000000000000E-01  1.3631194838589E+00  2.0298911735454E-01
59  5.8000000000000E-01  1.3902872312663E+00  1.1745889819449E-01
60  5.9000000000000E-01  1.4151441087352E+00  3.5205925653198E-02
61  6.0000000000000E-01  1.4374102874354E+00 -4.2282520855245E-02
62  6.1000000000000E-01  1.4568279354158E+00 -1.1361022326145E-01
63  6.2000000000000E-01  1.4731659565158E+00 -1.7749906432951E-01
64  6.3000000000000E-01  1.4862243290482E+00 -2.3281401020330E-01
65  6.4000000000000E-01  1.4958379580528E+00 -2.7858554214035E-01
66  6.5000000000000E-01  1.5018799632217E+00 -3.1402908827559E-01
67  6.6000000000000E-01  1.5042643344590E+00 -3.3856105986725E-01
68  6.7000000000000E-01  1.5029478982816E+00 -3.5181115802643E-01
69  6.8000000000000E-01  1.4979315506880E+00 -3.5363068531170E-01
70  6.9000000000000E-01  1.4892607254983E+00 -3.4409667053195E-01
71  7.0000000000000E-01  1.4770250812497E+00 -3.2351169327343E-01
72  7.1000000000000E-01  1.4613574042590E+00 -2.9239937560710E-01
73  7.2000000000000E-01  1.4424317401629E+00 -2.5149559061042E-01
74  7.3000000000000E-01  1.4204607808440E+00 -2.0173551920958E-01
75  7.4000000000000E-01  1.3956925478618E+00 -1.4423676685685E-01
76  7.5000000000000E-01  1.3684064270661E+00 -8.0278828161247E-02
77  7.6000000000000E-01  1.3389086217118E+00 -1.1279259322410E-02
78  7.7000000000000E-01  1.3075271028672E+00  6.1233016328781E-02
79  7.8000000000000E-01  1.2746061459964E+00  1.3564678648994E-01
80  7.9000000000000E-01  1.2405005510813E+00  2.1029947937925E-01
81  8.0000000000000E-01  1.2055696503794E+00  2.8350937272922E-01
82  8.1000000000000E-01  1.1701712127246E+00  3.5360848151874E-01
83  8.2000000000000E-01  1.1346553560833E+00  4.1897550589971E-01
84  8.3000000000000E-01  1.0993585807999E+00  4.7806821456350E-01
85  8.4000000000000E-01  1.0645980345715E+00  5.2945464434702E-01
86  8.5000000000000E-01  1.0306661167060E+00  5.7184251417745E-01
87  8.6000000000000E-01  9.9782552367372E-01  6.0410628024900E-01
88  8.7000000000000E-01  9.6630483046296E-01  6.2531129914827E-01
89  8.8000000000000E-01  9.3629469292047E-01  6.3473461581705E-01
90  8.9000000000000E-01  9.0794474525528E-01  6.3188195288229E-01
91  9.0000000000000E-01  8.8136125441490E-01  6.1650054592502E-01
92  9.1000000000000E-01  8.5660557932470E-01  5.8858754447355E-01
93  9.2000000000000E-01  8.3369346826995E-01  5.4839377951138E-01
94  9.3000000000000E-01  8.1259521226301E-01  4.9642278360291E-01
95  9.4000000000000E-01  7.9323665636742E-01  4.3342503775591E-01
96  9.5000000000000E-01  7.7550105493669E-01  3.6038750824448E-01
97  9.6000000000000E-01  7.5923174087472E-01  2.7851862511020E-01
98  9.7000000000000E-01  7.4423556363543E-01  1.8922894028235E-01
99  9.8000000000000E-01  7.3028703604104E-01  9.4107785585567E-02
100  9.9000000000000E-01  7.1713311640134E-01 -5.1036722800693E-03
101  1.0000000000000E+00  7.0449854010421E-01 -1.0654251277760E-01
102  1.0100000000000E+00  6.9209160408002E-01 -2.0825675000946E-01
103  1.0200000000000E+00  6.7961029851695E-01 -3.0824004795511E-01
104  1.0300000000000E+00  6.6674867310005E-01 -4.0446784020105E-01
105  1.0400000000000E+00  6.5320332001163E-01 -4.9493420165881E-01
106  1.0500000000000E+00  6.3867985306781E-01 -5.7768880149685E-01
107  1.0600000000000E+00  6.2289926173217E-01 -6.5087326055958E-01
108  1.0700000000000E+00  6.0560402037934E-01 -7.1275624315625E-01
109  1.0800000000000E+00  5.8656383703169E-01 -7.6176663205199E-01
110  1.0900000000000E+00  5.6558093183892E-01 -7.9652416669501E-01
111  1.1000000000000E+00  5.4249474365167E-01 -8.1586696732152E-01
112  1.1100000000000E+00  5.1718597307746E-01 -8.1887542117986E-01
113  1.1200000000000E+00  4.8957988215802E-01 -8.0489197041361E-01
114  1.1300000000000E+00  4.5964878410363E-01 -7.7353641323746E-01
115  1.1400000000000E+00  4.2741367109372E-01 -7.2471640946662E-01
116  1.1500000000000E+00  3.9294494374268E-01 -6.5863296681162E-01
117  1.1600000000000E+00  3.5636222214885E-01 -5.7578077404941E-01
118  1.1700000000000E+00  3.1783323519975E-01 -4.7694333962769E-01
119  1.1800000000000E+00  2.7757180164814E-01 -3.6318298753025E-01
120  1.1900000000000E+00  2.3583493318347E-01 -2.3582585512834E-01
121  1.2000000000000E+00  1.9291910582452E-01 -9.6442127623228E-02
122  1.2100000000000E+00  1.4915576139339E-01  5.3178169756710E-02
123  1.2200000000000E+00  1.0490611502908E-01  2.1105342058991E-01
124  1.2300000000000E+00  6.0555357665916E-02  3.7504223231659E-01
125  1.2400000000000E+00  1.6506353709434E-02  5.4287827797312E-01
126  1.2500000000000E+00 -2.6827056351477E-02  7.1220756999768E-01
127  1.2600000000000E+00 -6.9027031079846E-02  8.8062752679459E-01
128  1.2700000000000E+00 -1.0967885825607E-01  1.0457271598445E+00
129  1.2800000000000E+00 -1.4837811412687E-01  1.2051276880159E+00
130  1.2900000000000E+00 -1.8473772485171E-01  1.3565228770543E+00
131  1.3000000000000E+00 -2.1839480461221E-01  1.4977184060667E+00
132  1.3100000000000E+00 -2.4901714843795E-01  1.6266695788800E+00
133  1.3200000000000E+00 -2.7630926361848E-01  1.7415167264209E+00
134  1.3300000000000E+00 -3.0001783145172E-01  1.8406176858920E+00