Pm    ONCVPSP-4.0.1  r_core=   2.00379   1.60593   1.91015   1.60593
61.0000     15.0000      250707    zatom,zion,pspd
8      11   3     4   600     0    pspcod,pspxc,lmax,lloc,mmax,r2well
5.99000000 34.00000000  0.00000000    rchrg fchrg qchrg
2     2     2     2     0    nproj
1     1           extension_switch
0                         8.1846456338219E+00  3.2197946176190E-01
1  0.0000000000000E+00  4.2441272718463E-11 -2.4448186530801E-10
2  1.0000000000000E-02  4.1337445942926E-02 -1.0292821747697E-02
3  2.0000000000000E-02  8.2650391590178E-02 -2.0616189175529E-02
4  3.0000000000000E-02  1.2391421868189E-01 -3.0999999676333E-02
5  4.0000000000000E-02  1.6510407434767E-01 -4.1472860798625E-02
6  5.0000000000000E-02  2.0619475708521E-01 -5.2061462087528E-02
7  6.0000000000000E-02  2.4716060664927E-01 -6.2789966866931E-02
8  7.0000000000000E-02  2.8797539910430E-01 -7.3679430320566E-02
9  8.0000000000000E-02  3.2861224825166E-01 -8.4747249985258E-02
10  9.0000000000000E-02  3.6904351458967E-01 -9.6006654467824E-02
11  1.0000000000000E-01  4.0924072290301E-01 -1.0746623584101E-01
12  1.1000000000000E-01  4.4917448950664E-01 -1.1912953076682E-01
13  1.2000000000000E-01  4.8881446009005E-01 -1.3099465494054E-01
14  1.3000000000000E-01  5.2812925901995E-01 -1.4305399495075E-01
15  1.4000000000000E-01  5.6708645086532E-01 -1.5529396111313E-01
16  1.5000000000000E-01  6.0565251480709E-01 -1.6769480426420E-01
17  1.6000000000000E-01  6.4379283248870E-01 -1.8023049890088E-01
18  1.7000000000000E-01  6.8147168975192E-01 -1.9286869442675E-01
19  1.8000000000000E-01  7.1865229258727E-01 -2.0557073562361E-01
20  1.9000000000000E-01  7.5529679751013E-01 -2.1829175281240E-01
21  2.0000000000000E-01  7.9136635645313E-01 -2.3098082150528E-01
22  2.1000000000000E-01  8.2682117614440E-01 -2.4358119068979E-01
23  2.2000000000000E-01  8.6162059181972E-01 -2.5603057822896E-01
24  2.3000000000000E-01  8.9572315499589E-01 -2.6826153121683E-01
25  2.4000000000000E-01  9.2908673491409E-01 -2.8020184850104E-01
26  2.5000000000000E-01  9.6166863314610E-01 -2.9177506197972E-01
27  2.6000000000000E-01  9.9342571074353E-01 -3.0290097270390E-01
28  2.7000000000000E-01  1.0243145272031E+00 -3.1349623727506E-01
29  2.8000000000000E-01  1.0542914904179E+00 -3.2347499952350E-01
30  2.9000000000000E-01  1.0833130166899E+00 -3.3274956199462E-01
31  3.0000000000000E-01  1.1113356997872E+00 -3.4123109135755E-01
32  3.1000000000000E-01  1.1383164879513E+00 -3.4883035149133E-01
33  3.2000000000000E-01  1.1642128676849E+00 -3.5545845769872E-01
34  3.3000000000000E-01  1.1889830530853E+00 -3.6102764525086E-01
35  3.4000000000000E-01  1.2125861794361E+00 -3.6545204528056E-01
36  3.5000000000000E-01  1.2349824997233E+00 -3.6864846091778E-01
37  3.6000000000000E-01  1.2561335827074E+00 -3.7053713650133E-01
38  3.7000000000000E-01  1.2760025111577E+00 -3.7104251270564E-01
39  3.8000000000000E-01  1.2945540788430E+00 -3.7009396049132E-01
40  3.9000000000000E-01  1.3117549848675E+00 -3.6762648692185E-01
41  4.0000000000000E-01  1.3275740239493E+00 -3.6358140608716E-01
42  4.1000000000000E-01  1.3419822712566E+00 -3.5790696863393E-01
43  4.2000000000000E-01  1.3549532604457E+00 -3.5055894372191E-01
44  4.3000000000000E-01  1.3664631535814E+00 -3.4150114760383E-01
45  4.4000000000000E-01  1.3764909016728E+00 -3.3070591345513E-01
46  4.5000000000000E-01  1.3850183946118E+00 -3.1815449756419E-01
47  4.6000000000000E-01  1.3920305993692E+00 -3.0383741751968E-01
48  4.7000000000000E-01  1.3975156853830E+00 -2.8775471860310E-01
49  4.8000000000000E-01  1.4014651361488E+00 -2.6991616520095E-01
50  4.9000000000000E-01  1.4038738461222E+00 -2.5034135469057E-01
51  5.0000000000000E-01  1.4047402021318E+00 -2.2905975191825E-01
52  5.1000000000000E-01  1.4040661486100E+00 -2.0611064307525E-01
53  5.2000000000000E-01  1.4018572360535E+00 -1.8154300847602E-01
54  5.3000000000000E-01  1.3981226522389E+00 -1.5541531445359E-01
55  5.4000000000000E-01  1.3928752358329E+00 -1.2779522529655E-01
56  5.5000000000000E-01  1.3861314721541E+00 -9.8759236860772E-02
57  5.6000000000000E-01  1.3779114709640E+00 -6.8392234184638E-02
58  5.7000000000000E-01  1.3682389262829E+00 -3.6786976118686E-02
59  5.8000000000000E-01  1.3571410583460E+00 -4.0435106383648E-03
60  5.9000000000000E-01  1.3446485379353E+00  2.9731474859472E-02
61  6.0000000000000E-01  1.3307953934358E+00  6.4425363379517E-02
62  6.1000000000000E-01  1.3156189010827E+00  9.9920372812693E-02
63  6.2000000000000E-01  1.2991594589727E+00  1.3609436911125E-01
64  6.3000000000000E-01  1.2814604455198E+00  1.7282172171321E-01
65  6.4000000000000E-01  1.2625680631382E+00  2.0997419436029E-01
66  6.5000000000000E-01  1.2425311680281E+00  2.4742186409217E-01
67  6.6000000000000E-01  1.2214010870304E+00  2.8503406089748E-01
68  6.7000000000000E-01  1.1992314225989E+00  3.2268032026112E-01
69  6.8000000000000E-01  1.1760778470133E+00  3.6023134066808E-01
70  6.9000000000000E-01  1.1519978870233E+00  3.9755993801100E-01
71  7.0000000000000E-01  1.1270507001748E+00  4.3454198879821E-01
72  7.1000000000000E-01  1.1012968441195E+00  4.7105735407708E-01
73  7.2000000000000E-01  1.0747980402523E+00  5.0699077606810E-01
74  7.3000000000000E-01  1.0476169330537E+00  5.4223273965281E-01
75  7.4000000000000E-01  1.0198168465426E+00  5.7668029106640E-01
76  7.5000000000000E-01  9.9146153925760E-01  6.1023780641865E-01
77  7.6000000000000E-01  9.6261495919576E-01  6.4281770299550E-01
78  7.7000000000000E-01  9.3334100013508E-01  6.7434108668041E-01
79  7.8000000000000E-01  9.0370326075787E-01  7.0473832927405E-01
80  7.9000000000000E-01  8.7376480797445E-01  7.3394956998011E-01
81  8.0000000000000E-01  8.4358794582036E-01  7.6192513586012E-01
82  8.1000000000000E-01  8.1323399126635E-01  7.8862587663697E-01
83  8.2000000000000E-01  7.8276305823860E-01  8.1402340984158E-01
84  8.3000000000000E-01  7.5223385109805E-01  8.3810027294393E-01
85  8.4000000000000E-01  7.2170346877142E-01  8.6084997978654E-01
86  8.5000000000000E-01  6.9122722066404E-01  8.8227697933756E-01
87  8.6000000000000E-01  6.6085845541583E-01  9.0239651549999E-01
88  8.7000000000000E-01  6.3064840348670E-01  9.2123438744702E-01
89  8.8000000000000E-01  6.0064603447727E-01  9.3882661069810E-01
90  8.9000000000000E-01  5.7089793000528E-01  9.5521897989840E-01
91  9.0000000000000E-01  5.4144817286697E-01  9.7046653501798E-01
92  9.1000000000000E-01  5.1233825311810E-01  9.8463293343390E-01
93  9.2000000000000E-01  4.8360699160909E-01  9.9778973110302E-01
94  9.3000000000000E-01  4.5529048140592E-01  1.0100155767665E+00
95  9.4000000000000E-01  4.2742204742048E-01  1.0213953238476E+00
96  9.5000000000000E-01  4.0003222446407E-01  1.0320190654121E+00
97  9.6000000000000E-01  3.7314875382316E-01  1.0419810982447E+00
98  9.7000000000000E-01  3.4679659834033E-01  1.0513788227674E+00
99  9.8000000000000E-01  3.2099797586285E-01  1.0603115861653E+00
100  9.9000000000000E-01  2.9577241080002E-01  1.0688794767126E+00
101  1.0000000000000E+00  2.7113680340516E-01  1.0771820778811E+00
102  1.0100000000000E+00  2.4710551627208E-01  1.0853171913869E+00
103  1.0200000000000E+00  2.2369047740727E-01  1.0933795388691E+00
104  1.0300000000000E+00  2.0090129910900E-01  1.1014594524033E+00
105  1.0400000000000E+00  1.7874541175361E-01  1.1096415645374E+00
106  1.0500000000000E+00  1.5722821145697E-01  1.1180035089789E+00
107  1.0600000000000E+00  1.3635322044674E-01  1.1266146434804E+00
108  1.0700000000000E+00  1.1612225884840E-01  1.1355348068473E+00
109  1.0800000000000E+00  9.6535626456262E-02  1.1448131223304E+00
110  1.0900000000000E+00  7.7592292929776E-02  1.1544868599695E+00
111  1.1000000000000E+00  5.9290094727019E-02  1.1645803707050E+00
112  1.1100000000000E+00  4.1625936960975E-02  1.1751041052889E+00
113  1.1200000000000E+00  2.4595998242772E-02  1.1860537311796E+00
114  1.1300000000000E+00  8.1959364584853E-03  1.1974093607050E+00
115  1.1400000000000E+00 -7.5789066840827E-03  1.2091349038141E+00
116  1.1500000000000E+00 -2.2733304605523E-02  1.2211775587016E+00
117  1.1600000000000E+00 -3.7271950662062E-02  1.2334674534720E+00
118  1.1700000000000E+00 -5.1199271252699E-02  1.2459174518068E+00
119  1.1800000000000E+00 -6.4519249738021E-02  1.2584231352901E+00
120  1.1900000000000E+00 -7.7235263736538E-02  1.2708629746265E+00
121  1.2000000000000E+00 -8.9349938400238E-02  1.2830987014429E+00
122  1.2100000000000E+00 -1.0086501828690E-01  1.2949758916679E+00
123  1.2200000000000E+00 -1.1178126043923E-01  1.3063247706414E+00
124  1.2300000000000E+00 -1.2209835124706E-01  1.3169612490701E+00
125  1.2400000000000E+00 -1.3181484960589E-01  1.3266881977230E+00
126  1.2500000000000E+00 -1.4092815878894E-01  1.3352969673106E+00
127  1.2600000000000E+00 -1.4943452931718E-01  1.3425691582974E+00
128  1.2700000000000E+00 -1.5732909493843E-01  1.3482786434349E+00
129  1.2800000000000E+00 -1.6460594360968E-01  1.3521938435442E+00
130  1.2900000000000E+00 -1.7125822510868E-01  1.3540802544849E+00
131  1.3000000000000E+00 -1.7727829658146E-01  1.3537032203027E+00
132  1.3100000000000E+00 -1.8265790695410E-01  1.3508309442230E+00
133  1.3200000000000E+00 -1.8738842069423E-01  1.3452377253835E+00
134  1.3300000000000E+00 -1.9146108089707E-01  1.3367074049816E+00
135  1.3400000000000E+00 -1.9486731108862E-01  1.3250370008061E+00
136  1.3500000000000E+00 -1.9759905447172E-01  1.3100405038435E+00
137  1.3600000000000E+00 -1.9964914859299E-01  1.2915528048181E+00
138  1.3700000000000E+00 -2.0101173256522E-01  1.2694337120450E+00
139  1.3800000000000E+00 -2.0168268304515E-01  1.2435720148657E+00
140  1.3900000000000E+00 -2.0166007411699E-01  1.2138895390354E+00
141  1.4000000000000E+00 -2.0094465508017E-01  1.1803451318245E+00
142  1.4100000000000E+00 -1.9954033886441E-01  1.1429385051328E+00
143  1.4200000000000E+00 -1.9745469239456E-01  1.1017138545767E+00
144  1.4300000000000E+00 -1.9469941869664E-01  1.0567631612610E+00
145  1.4400000000000E+00 -1.9129081885429E-01  1.0082290706360E+00
146  1.4500000000000E+00 -1.8725022010307E-01  9.5630722954301E-01
147  1.4600000000000E+00 -1.8260435436220E-01  9.0124794808864E-01
148  1.4700000000000E+00 -1.7738566934671E-01  8.4335703731397E-01
149  1.4800000000000E+00 -1.7163255207391E-01  7.8299565673811E-01
150  1.4900000000000E+00 -1.6538944205494E-01  7.2057898757341E-01
151  1.5000000000000E+00 -1.5870680873878E-01  6.5657352769813E-01
152  1.5100000000000E+00 -1.5164096484989E-01  5.9149278330770E-01
153  1.5200000000000E+00 -1.4425368410634E-01  5.2589110935601E-01
154  1.5300000000000E+00 -1.3661158841919E-01  4.6035542642356E-01
155  1.5400000000000E+00 -1.2878526604095E-01  3.9549451538897E-01
156  1.5500000000000E+00 -1.2084807823930E-01  3.3192556314987E-01
157  1.5600000000000E+00 -1.1287460789639E-01  2.7025760245156E-01
158  1.5700000000000E+00 -1.0493869899804E-01  2.1107145680587E-01
159  1.5800000000000E+00 -9.7111029997953E-02  1.5489575380240E-01
160  1.5900000000000E+00 -8.9456158537749E-02  1.0217853148265E-01
161  1.6000000000000E+00 -8.2029056633475E-02  5.3254855778516E-02
162  1.6100000000000E+00 -7.4870592705599E-02  8.3047798880235E-03
163  1.6200000000000E+00 -6.8006565109405E-02 -3.2647851385679E-02
164  1.6300000000000E+00 -6.1455070108063E-02 -6.9647473050964E-02
165  1.6400000000000E+00 -5.5231359681898E-02 -1.0275189242532E-01
166  1.6500000000000E+00 -4.9347634188445E-02 -1.3203468579019E-01
167  1.6600000000000E+00 -4.3813147366929E-02 -1.5758414432132E-01
168  1.6700000000000E+00 -3.8634259466747E-02 -1.7950291728338E-01
169  1.6800000000000E+00 -3.3814506358656E-02 -1.9790756677976E-01
170  1.6900000000000E+00 -2.9354687252549E-02 -2.1292800572060E-01
171  1.7000000000000E+00 -2.5252968961833E-02 -2.2470683914153E-01
172  1.7100000000000E+00 -2.1505006169370E-02 -2.3339861141984E-01
173  1.7200000000000E+00 -1.8104077026668E-02 -2.3916896271941E-01
174  1.7300000000000E+00 -1.5041233290854E-02 -2.4219369884734E-01
175  1.7400000000000E+00 -1.2305464097559E-02 -2.4265777936775E-01
176  1.7500000000000E+00 -9.8838723087768E-03 -2.4075423002148E-01
177  1.7600000000000E+00 -7.7618623732360E-03 -2.3668298520710E-01
178  1.7700000000000E+00 -5.9233381386130E-03 -2.3064967073534E-01
179  1.7800000000000E+00 -4.3509100793068E-03 -2.2286432713186E-01
180  1.7900000000000E+00 -3.0261098273201E-03 -2.1354008847371E-01
181  1.8000000000000E+00 -1.9296092134673E-03 -2.0289183803444E-01
182  1.8100000000000E+00 -1.0414467193453E-03 -1.9113480793757E-01
183  1.8200000000000E+00 -3.4125396548304E-04 -1.7848318722442E-01
184  1.8300000000000E+00  1.9151529167388E-04 -1.6514870943795E-01
185  1.8400000000000E+00  5.7735694434474E-04 -1.5133924536538E-01
186  1.8500000000000E+00  8.3649046843248E-04 -1.3725740839515E-01
187  1.8600000000000E+00  9.8863669462364E-04 -1.2309918299872E-01
188  1.8700000000000E+00  1.0528034602062E-03 -1.0905260014123E-01
189  1.8800000000000E+00  1.0470573295584E-03 -9.5296337755072E-02
190  1.8900000000000E+00  9.8837609819394E-04 -8.1998776375135E-02
191  1.9000000000000E+00  8.9239626939462E-04 -6.9316493456226E-02
192  1.9100000000000E+00  7.7217842964096E-04 -5.7387133044740E-02
193  1.9200000000000E+00  6.3729018582502E-04 -4.6323917965763E-02
194  1.9300000000000E+00  4.9943099048716E-04 -3.6247515958672E-02
195  1.9400000000000E+00  3.6872407455927E-04 -2.7265334388082E-02
196  1.9500000000000E+00  2.5291649649337E-04 -1.9466930214233E-02
197  1.9600000000000E+00  1.5742762150532E-04 -1.2924166570887E-02
198  1.9700000000000E+00  8.5242373470697E-05 -7.6914631294821E-03
199  1.9800000000000E+00  3.6835452308651E-05 -3.8005296078518E-03
200  1.9900000000000E+00  1.0122507875827E-05 -1.2626356534654E-03
201  2.0000000000000E+00  8.1630318729178E-07 -1.4006335070508E-04
202  2.0100000000000E+00 -2.1189709449075E-07  4.3107979334119E-05
203  2.0200000000000E+00  8.2776198102273E-08 -1.3429829947250E-05
204  2.03 -0.  0.
205  2.04 -0.  0.
206  2.05 -0.  0.
207  2.06  0.  0.
208  2.07  0.  0.
209  2.08  0.  0.
210  2.09  0.  0.
211  2.10  0.  0.
212  2.11  0.  0.
213  2.12  0.  0.
214  2.13  0.  0.
215  2.14  0.  0.
216  2.15  0.  0.
217  2.16  0.  0.
218  2.17  0.  0.
219  2.18  0.  0.
220  2.19  0.  0.
221  2.20  0.  0.
222  2.21  0.  0.
223  2.22  0.  0.
224  2.23  0.  0.
225  2.24  0.  0.
226  2.25  0.  0.
227  2.26  0.  0.
228  2.27  0.  0.
229  2.28  0.  0.
230  2.29  0.  0.
231  2.30  0.  0.
232  2.31  0.  0.
233  2.32  0.  0.
234  2.33  0.  0.
235  2.34  0.  0.
236  2.35  0.  0.
237  2.36  0.  0.
238  2.37  0.  0.
239  2.38  0.  0.
240  2.39  0.  0.
241  2.40  0.  0.
242  2.41  0.  0.
243  2.42  0.  0.
244  2.43  0.  0.
245  2.44  0.  0.
246  2.45  0.  0.
247  2.46  0.  0.
248  2.47  0.  0.
249  2.48  0.  0.
250  2.49  0.  0.
251  2.50  0.  0.
252  2.51  0.  0.
253  2.52  0.  0.
254  2.53  0.  0.
255  2.54  0.  0.
256  2.55  0.  0.
257  2.56  0.  0.
258  2.57  0.  0.
259  2.58  0.  0.
260  2.59  0.  0.
261  2.60  0.  0.
262  2.61  0.  0.
263  2.62  0.  0.
264  2.63  0.  0.
265  2.64  0.  0.
266  2.65  0.  0.
267  2.66  0.  0.
268  2.67  0.  0.
269  2.68  0.  0.
270  2.69  0.  0.
271  2.70  0.  0.
272  2.71  0.  0.
273  2.72  0.  0.
274  2.73  0.  0.
275  2.74  0.  0.
276  2.75  0.  0.
277  2.76  0.  0.
278  2.77  0.  0.
279  2.78  0.  0.
280  2.79  0.  0.
281  2.80  0.  0.
282  2.81  0.  0.
283  2.82  0.  0.
284  2.83  0.  0.
285  2.84  0.  0.
286  2.85  0.  0.
287  2.86  0.  0.
288  2.87  0.  0.
289  2.88  0.  0.
290  2.89  0.  0.
291  2.90  0.  0.
292  2.91  0.  0.
293  2.92  0.  0.
294  2.93  0.  0.
295  2.94  0.  0.
296  2.95  0.  0.
297  2.96  0.  0.
298  2.97  0.  0.
299  2.98  0.  0.
300  2.99  0.  0.
301  3.00  0.  0.
302  3.01  0.  0.
303  3.02  0.  0.
304  3.03  0.  0.
305  3.04  0.  0.
306  3.05  0.  0.
307  3.06  0.  0.
308  3.07  0.  0.
309  3.08  0.  0.
310  3.09  0.  0.
311  3.10  0.  0.
312  3.11  0.  0.
313  3.12  0.  0.
314  3.13  0.  0.
315  3.14  0.  0.
316  3.15  0.  0.
317  3.16  0.  0.
318  3.17  0.  0.
319  3.18  0.  0.
320  3.19  0.  0.
321  3.20  0.  0.
322  3.21  0.  0.
323  3.22  0.  0.
324  3.23  0.  0.
325  3.24  0.  0.
326  3.25  0.  0.
327  3.26  0.  0.
328  3.27  0.  0.
329  3.28  0.  0.
330  3.29  0.  0.
331  3.30  0.  0.
332  3.31  0.  0.
333  3.32  0.  0.
334  3.33  0.  0.
335  3.34  0.  0.
336  3.35  0.  0.
337  3.36  0.  0.
338  3.37  0.  0.
339  3.38  0.  0.
340  3.39  0.  0.
341  3.40  0.  0.
342  3.41  0.  0.
343  3.42  0.  0.
344  3.43  0.  0.
345  3.44  0.  0.
346  3.45  0.  0.
347  3.46  0.  0.
348  3.47  0.  0.
349  3.48  0.  0.
350  3.49  0.  0.
351  3.50  0.  0.
352  3.51  0.  0.
353  3.52  0.  0.
354  3.53  0.  0.
355  3.54  0.  0.
356  3.55  0.  0.
357  3.56  0.  0.
358  3.57  0.  0.
359  3.58  0.  0.
360  3.59  0.  0.
361  3.60  0.  0.
362  3.61  0.  0.
363  3.62  0.  0.
364  3.63  0.  0.
365  3.64  0.  0.
366  3.65  0.  0.
367  3.66  0.  0.
368  3.67  0.  0.
369  3.68  0.  0.
370  3.69  0.  0.
371  3.70  0.  0.
372  3.71  0.  0.
373  3.72  0.  0.
374  3.73  0.  0.
375  3.74  0.  0.
376  3.75  0.  0.
377  3.76  0.  0.
378  3.77  0.  0.
379  3.78  0.  0.
380  3.79  0.  0.
381  3.80  0.  0.
382  3.81  0.  0.
383  3.82  0.  0.
384  3.83  0.  0.
385  3.84  0.  0.
386  3.85  0.  0.
387  3.86  0.  0.
388  3.87  0.  0.
389  3.88  0.  0.
390  3.89  0.  0.
391  3.90  0.  0.
392  3.91  0.  0.
393  3.92  0.  0.
394  3.93  0.  0.
395  3.94  0.  0.
396  3.95  0.  0.
397  3.96  0.  0.
398  3.97  0.  0.
399  3.98  0.  0.
400  3.99  0.  0.
401  4.00  0.  0.
402  4.01  0.  0.
403  4.02  0.  0.
404  4.03  0.  0.
405  4.04  0.  0.
406  4.05  0.  0.
407  4.06  0.  0.
408  4.07  0.  0.
409  4.08  0.  0.
410  4.09  0.  0.
411  4.10  0.  0.
412  4.11  0.  0.
413  4.12  0.  0.
414  4.13  0.  0.
415  4.14  0.  0.
416  4.15  0.  0.
417  4.16  0.  0.
418  4.17  0.  0.
419  4.18  0.  0.
420  4.19  0.  0.
421  4.20  0.  0.
422  4.21  0.  0.
423  4.22  0.  0.
424  4.23  0.  0.
425  4.24  0.  0.
426  4.25  0.  0.
427  4.26  0.  0.
428  4.27  0.  0.
429  4.28  0.  0.
430  4.29  0.  0.
431  4.30  0.  0.
432  4.31  0.  0.
433  4.32  0.  0.
434  4.33  0.  0.
435  4.34  0.  0.
436  4.35  0.  0.
437  4.36  0.  0.
438  4.37  0.  0.
439  4.38  0.  0.
440  4.39  0.  0.
441  4.40  0.  0.
442  4.41  0.  0.
443  4.42  0.  0.
444  4.43  0.  0.
445  4.44  0.  0.
446  4.45  0.  0.
447  4.46  0.  0.
448  4.47  0.  0.
449  4.48  0.  0.
450  4.49  0.  0.
451  4.50  0.  0.
452  4.51  0.  0.
453  4.52  0.  0.
454  4.53  0.  0.
455  4.54  0.  0.
456  4.55  0.  0.
457  4.56  0.  0.
458  4.57  0.  0.
459  4.58  0.  0.
460  4.59  0.  0.
461  4.60  0.  0.
462  4.61  0.  0.
463  4.62  0.  0.
464  4.63  0.  0.
465  4.64  0.  0.
466  4.65  0.  0.
467  4.66  0.  0.
468  4.67  0.  0.
469  4.68  0.  0.
470  4.69  0.  0.
471  4.70  0.  0.
472  4.71  0.  0.
473  4.72  0.  0.
474  4.73  0.  0.
475  4.74  0.  0.
476  4.75  0.  0.
477  4.76  0.  0.
478  4.77  0.  0.
479  4.78  0.  0.
480  4.79  0.  0.
481  4.80  0.  0.
482  4.81  0.  0.
483  4.82  0.  0.
484  4.83  0.  0.
485  4.84  0.  0.
486  4.85  0.  0.
487  4.86  0.  0.
488  4.87  0.  0.
489  4.88  0.  0.
490  4.89  0.  0.
491  4.90  0.  0.
492  4.91  0.  0.
493  4.92  0.  0.
494  4.93  0.  0.
495  4.94  0.  0.
496  4.95  0.  0.
497  4.96  0.  0.
498  4.97  0.  0.
499  4.98  0.  0.
500  4.99  0.  0.
501  5.00  0.  0.
502  5.01  0.  0.
503  5.02  0.  0.
504  5.03  0.  0.
505  5.04  0.  0.
506  5.05  0.  0.
507  5.06  0.  0.
508  5.07  0.  0.
509  5.08  0.  0.
510  5.09  0.  0.
511  5.10  0.  0.
512  5.11  0.  0.
513  5.12  0.  0.
514  5.13  0.  0.
515  5.14  0.  0.
516  5.15  0.  0.
517  5.16  0.  0.
518  5.17  0.  0.
519  5.18  0.  0.
520  5.19  0.  0.
521  5.20  0.  0.
522  5.21  0.  0.
523  5.22  0.  0.
524  5.23  0.  0.
525  5.24  0.  0.
526  5.25  0.  0.
527  5.26  0.  0.
528  5.27  0.  0.
529  5.28  0.  0.
530  5.29  0.  0.
531  5.30  0.  0.
532  5.31  0.  0.
533  5.32  0.  0.
534  5.33  0.  0.
535  5.34  0.  0.
536  5.35  0.  0.
537  5.36  0.  0.
538  5.37  0.  0.
539  5.38  0.  0.
540  5.39  0.  0.
541  5.40  0.  0.
542  5.41  0.  0.
543  5.42  0.  0.
544  5.43  0.  0.
545  5.44  0.  0.
546  5.45  0.  0.
547  5.46  0.  0.
548  5.47  0.  0.
549  5.48  0.  0.
550  5.49  0.  0.
551  5.50  0.  0.
552  5.51  0.  0.
553  5.52  0.  0.
554  5.53  0.  0.
555  5.54  0.  0.
556  5.55  0.  0.
557  5.56  0.  0.
558  5.57  0.  0.
559  5.58  0.  0.
560  5.59  0.  0.
561  5.60  0.  0.
562  5.61  0.  0.
563  5.62  0.  0.
564  5.63  0.  0.
565  5.64  0.  0.
566  5.65  0.  0.
567  5.66  0.  0.
568  5.67  0.  0.
569  5.68  0.  0.
570  5.69  0.  0.
571  5.70  0.  0.
572  5.71  0.  0.
573  5.72  0.  0.
574  5.73  0.  0.
575  5.74  0.  0.
576  5.75  0.  0.
577  5.76  0.  0.
578  5.77  0.  0.
579  5.78  0.  0.
580  5.79  0.  0.
581  5.80  0.  0.
582  5.81  0.  0.
583  5.82  0.  0.
584  5.83  0.  0.
585  5.84  0.  0.
586  5.85  0.  0.
587  5.86  0.  0.
588  5.87  0.  0.
589  5.88  0.  0.
590  5.89  0.  0.
591  5.90  0.  0.
592  5.91  0.  0.
593  5.92  0.  0.
594  5.93  0.  0.
595  5.94  0.  0.
596  5.95  0.  0.
597  5.96  0.  0.
598  5.97  0.  0.
599  5.98  0.  0.
600  5.99  0.  0.
1                         4.8471748462079E+00  1.8880241352784E+00
1  0.0000000000000E+00  1.5016283320957E-09 -5.6110385227015E-09
2  1.0000000000000E-02  4.8671956017656E-04  1.8083942103139E-03
3  2.0000000000000E-02  1.9456235377829E-03  7.2291795531889E-03
4  3.0000000000000E-02  4.3729826774287E-03  1.6249052941602E-02
5  4.0000000000000E-02  7.7626968290844E-03  2.8845475197852E-02
6  5.0000000000000E-02  1.2106464722977E-02  4.4986131749133E-02
7  6.0000000000000E-02  1.7394015446839E-02  6.4628200828718E-02
8  7.0000000000000E-02  2.3613395578720E-02  8.7717451803815E-02
9  8.0000000000000E-02  3.0751304426961E-02  1.1418720186222E-01
10  9.0000000000000E-02  3.8793468490720E-02  1.4395716428482E-01
11  1.0000000000000E-01  4.7725045109101E-02  1.7693222579881E-01
12  1.1000000000000E-01  5.7531044340162E-02  2.1300119395004E-01
13  1.2000000000000E-01  6.8196757424149E-02  2.5203555797248E-01
14  1.3000000000000E-01  7.9708179754854E-02  2.9388830820423E-01
15  1.4000000000000E-01  9.2052416120124E-02  3.3839285966289E-01
16  1.5000000000000E-01  1.0521805608342E-01  3.8536212492294E-01
17  1.6000000000000E-01  1.1919550776323E-01  4.3458777993388E-01
18  1.7000000000000E-01  1.3397727892094E-01  4.8583976390007E-01
19  1.8000000000000E-01  1.4955819517967E-01  5.3886605084967E-01
20  1.9000000000000E-01  1.6593554635066E-01  5.9339272611307E-01
21  2.0000000000000E-01  1.8310915321928E-01  6.4912439568808E-01
22  2.1000000000000E-01  2.0108134871319E-01  7.0574495048757E-01
23  2.2000000000000E-01  2.1985686911149E-01  7.6291870085687E-01
24  2.3000000000000E-01  2.3944265282213E-01  8.2029188963979E-01
25  2.4000000000000E-01  2.5984754621874E-01  8.7749458459974E-01
26  2.5000000000000E-01  2.8108191804862E-01  9.3414294331335E-01
27  2.6000000000000E-01  3.0315718596113E-01  9.8984183589847E-01
28  2.7000000000000E-01  3.2608526071819E-01  1.0441878032726E+00
29  2.8000000000000E-01  3.4987791559585E-01  1.0967723212154E+00
30  2.9000000000000E-01  3.7454609032675E-01  1.1471853334802E+00
31  3.0000000000000E-01  4.0009914063039E-01  1.1950190107158E+00
32  3.1000000000000E-01  4.2654404589365E-01  1.2398716861455E+00
33  3.2000000000000E-01  4.5388458886652E-01  1.2813519139471E+00
34  3.3000000000000E-01  4.8212052229681E-01  1.3190825921812E+00
35  3.4000000000000E-01  5.1124673821846E-01  1.3527050890249E+00
36  3.5000000000000E-01  5.4125245611081E-01  1.3818833090680E+00
37  3.6000000000000E-01  5.7212044634628E-01  1.4063076355581E+00
38  3.7000000000000E-01  6.0382630523174E-01  1.4256986847892E+00
39  3.8000000000000E-01  6.3633779752202E-01  1.4398108103199E+00
40  3.9000000000000E-01  6.6961428154555E-01  1.4484352973764E+00
41  4.0000000000000E-01  7.0360623103984E-01  1.4514031915986E+00
42  4.1000000000000E-01  7.3825486646491E-01  1.4485877111900E+00
43  4.2000000000000E-01  7.7349190696558E-01  1.4399061974296E+00
44  4.3000000000000E-01  8.0923945231443E-01  1.4253215653280E+00
45  4.4000000000000E-01  8.4541000211803E-01  1.4048432238228E+00
46  4.5000000000000E-01  8.8190661734467E-01  1.3785274431888E+00
47  4.6000000000000E-01  9.1862322687062E-01  1.3464771561434E+00
48  4.7000000000000E-01  9.5544507928748E-01  1.3088411882904E+00
49  4.8000000000000E-01  9.9224933770850E-01  1.2658129229051E+00
50  4.9000000000000E-01  1.0289058128038E+00  1.2176284144541E+00
51  5.0000000000000E-01  1.0652778268283E+00  1.1645639744785E+00
52  5.1000000000000E-01  1.1012231990310E+00  1.1069332623889E+00
53  5.2000000000000E-01  1.1365953405899E+00  1.0450839221470E+00
54  5.3000000000000E-01  1.1712444451539E+00  9.7939381358999E-01
55  5.4000000000000E-01  1.2050187592231E+00  9.1026689412853E-01
56  5.5000000000000E-01  1.2377659150072E+00  8.3812881259306E-01
57  5.6000000000000E-01  1.2693343070924E+00  7.6342228198532E-01
58  5.7000000000000E-01  1.2995744932544E+00  6.8660230171937E-01
59  5.8000000000000E-01  1.3283405990974E+00  6.0813130252198E-01
60  5.9000000000000E-01  1.3554917058877E+00  5.2847428845346E-01
61  6.0000000000000E-01  1.3808932010081E+00  4.4809405046871E-01
62  6.1000000000000E-01  1.4044180708681E+00  3.6744652455842E-01
63  6.2000000000000E-01  1.4259481168835E+00  2.8697636480654E-01
64  6.3000000000000E-01  1.4453750762571E+00  2.0711279771373E-01
65  6.4000000000000E-01  1.4626016307424E+00  1.2826581893417E-01
66  6.5000000000000E-01  1.4775422883338E+00  5.0822787243211E-02
67  6.6000000000000E-01  1.4901241248541E+00 -2.4854536791535E-02
68  6.7000000000000E-01  1.5002873746927E+00 -9.8432468192063E-02
69  6.8000000000000E-01  1.5079858624176E+00 -1.6960736072430E-01
70  6.9000000000000E-01  1.5131872696243E+00 -2.3810703507747E-01
71  7.0000000000000E-01  1.5158732341235E+00 -3.0369166124623E-01
72  7.1000000000000E-01  1.5160392813790E+00 -3.6615409442700E-01
73  7.2000000000000E-01  1.5136945909158E+00 -4.2531967388837E-01
74  7.3000000000000E-01  1.5088616031923E+00 -4.8104550424858E-01
75  7.4000000000000E-01  1.5015754751034E+00 -5.3321924819793E-01
76  7.5000000000000E-01  1.4918833948177E+00 -5.8175746875661E-01
77  7.6000000000000E-01  1.4798437689864E+00 -6.2660356748159E-01
78  7.7000000000000E-01  1.4655252974703E+00 -6.6772537246781E-01
79  7.8000000000000E-01  1.4490059525560E+00 -7.0511243637932E-01
80  7.9000000000000E-01  1.4303718811495E+00 -7.3877310996908E-01
81  8.0000000000000E-01  1.4097162496113E+00 -7.6873146049196E-01
82  8.1000000000000E-01  1.3871380517056E+00 -7.9502410700289E-01
83  8.2000000000000E-01  1.3627409005702E+00 -8.1769704570169E-01
84  8.3000000000000E-01  1.3366318256517E+00 -8.3680253820743E-01
85  8.4000000000000E-01  1.3089200951994E+00 -8.5239613391552E-01
86  8.5000000000000E-01  1.2797160841757E+00 -8.6453389443381E-01
87  8.6000000000000E-01  1.2491302063283E+00 -8.7326988356312E-01
88  8.7000000000000E-01  1.2172719277048E+00 -8.7865398046269E-01
89  8.8000000000000E-01  1.1842488771032E+00 -8.8073006662615E-01
90  8.9000000000000E-01  1.1501660668644E+00 -8.7953462921964E-01
91  9.0000000000000E-01  1.1151252350809E+00 -8.7509581434922E-01
92  9.1000000000000E-01  1.0792243177460E+00 -8.6743295410150E-01
93  9.2000000000000E-01  1.0425570566643E+00 -8.5655658092352E-01
94  9.3000000000000E-01  1.0052127461263E+00 -8.4246893227084E-01
95  9.4000000000000E-01  9.6727611848355E-01 -8.2516493766864E-01
96  9.5000000000000E-01  9.2882736588580E-01 -8.0463366960038E-01
97  9.6000000000000E-01  8.8994229263617E-01 -7.8086022918256E-01
98  9.7000000000000E-01  8.5069258991351E-01 -7.5382802760298E-01
99  9.8000000000000E-01  8.1114622207856E-01 -7.2352141499650E-01
100  9.9000000000000E-01  7.7136791145830E-01 -6.8992859999577E-01
101  1.0000000000000E+00  7.3141970644224E-01 -6.5304479579136E-01
102  1.0100000000000E+00  6.9136161596688E-01 -6.1287552232882E-01
103  1.0200000000000E+00  6.5125229204438E-01 -5.6943998938593E-01
104  1.0300000000000E+00  6.1114974093863E-01 -5.2277448181938E-01
105  1.0400000000000E+00  5.7111204292772E-01 -4.7293566632901E-01
106  1.0500000000000E+00  5.3119806033268E-01 -4.2000373871180E-01
107  1.0600000000000E+00  4.9146811364262E-01 -3.6408533178497E-01
108  1.0700000000000E+00  4.5198460612834E-01 -3.0531610695004E-01
109  1.0800000000000E+00  4.1281257829575E-01 -2.4386295668860E-01
110  1.0900000000000E+00  3.7402017487852E-01 -1.7992575109301E-01
111  1.1000000000000E+00  3.3567900876988E-01 -1.1373856869447E-01
112  1.1100000000000E+00  2.9786440832892E-01 -4.5570360290798E-02
113  1.1200000000000E+00  2.6065553681486E-01  2.4274996005735E-02
114  1.1300000000000E+00  2.2413537527168E-01  9.5459279811863E-02
115  1.1400000000000E+00  1.8839056294780E-01  1.6761117371575E-01
116  1.1500000000000E+00  1.5351109224330E-01  2.4032817707788E-01
117  1.1600000000000E+00  1.1958985817208E-01  3.1317918467822E-01
118  1.1700000000000E+00  8.6722065353418E-02  3.8570771431231E-01
119  1.1800000000000E+00  5.5004498540806E-02  4.5743575539592E-01
120  1.1900000000000E+00  2.4534665614101E-02  5.2786819889258E-01
121  1.2000000000000E+00 -4.5901752820593E-03  5.9649779776208E-01
122  1.2100000000000E+00 -3.2274090187515E-02  6.6281059668455E-01
123  1.2200000000000E+00 -5.8423628786239E-02  7.2629176042550E-01
124  1.2300000000000E+00 -8.2949050261512E-02  7.8643172186821E-01
125  1.2400000000000E+00 -1.0576559523831E-01  8.4273256372832E-01
126  1.2500000000000E+00 -1.2679478217736E-01  8.9471454236085E-01
127  1.2600000000000E+00 -1.4596570564588E-01  9.4192265795054E-01
128  1.2700000000000E+00 -1.6321631337133E-01  9.8393317287336E-01
129  1.2800000000000E+00 -1.7849463888275E-01  1.0203599791085E+00
130  1.2900000000000E+00 -1.9175996687339E-01  1.0508607163206E+00
131  1.3000000000000E+00 -2.0298390916658E-01  1.0751425445724E+00
132  1.3100000000000E+00 -2.1215137031653E-01  1.0929674795062E+00
133  1.3200000000000E+00 -2.1926138341915E-01  1.1041572032038E+00
134  1.3300000000000E+00 -2.2432779859761E-01  1.1085972706316E+00