Al    ONCVPSP-4.0.1  r_core=   1.70928   1.75068   1.70928
13.0000      3.0000      241226    zatom,zion,pspd
8      11   2     4   600     0    pspcod,pspxc,lmax,lloc,mmax,r2well
5.99000000  5.00000000  0.00000000    rchrg fchrg qchrg
2     2     2     0     0    nproj
1     1           extension_switch
0                         6.4006996445320E+00  1.1986785793348E+00
1  0.0000000000000E+00  4.5989361208143E-09 -5.5379219959795E-09
2  1.0000000000000E-02  2.1250206940350E-02 -9.5285979599082E-03
3  2.0000000000000E-02  4.2640653749485E-02 -1.9193689050157E-02
4  3.0000000000000E-02  6.4308553486760E-02 -2.9128298972079E-02
5  4.0000000000000E-02  8.6385126153931E-02 -3.9458590476380E-02
6  5.0000000000000E-02  1.0899275236065E-01 -5.0300610199956E-02
7  6.0000000000000E-02  1.3224230386236E-01 -6.1757245428651E-02
8  7.0000000000000E-02  1.5623070439805E-01 -7.3915454100183E-02
9  8.0000000000000E-02  1.8103876965634E-01 -8.6843825823554E-02
10  9.0000000000000E-02  2.0672936962277E-01 -1.0059052497918E-01
11  1.0000000000000E-01  2.3334595011915E-01 -1.1518165921204E-01
12  1.1000000000000E-01  2.6091144316522E-01 -1.3062010799336E-01
13  1.2000000000000E-01  2.8942758801556E-01 -1.4688483657707E-01
14  1.3000000000000E-01  3.1887467650511E-01 -1.6393071080373E-01
15  1.4000000000000E-01  3.4921172783799E-01 -1.8168881800322E-01
16  1.5000000000000E-01  3.8037708934451E-01 -2.0006728892422E-01
17  1.6000000000000E-01  4.1228945118254E-01 -2.1895260538000E-01
18  1.7000000000000E-01  4.4484925464077E-01 -2.3821136835184E-01
19  1.8000000000000E-01  4.7794046577890E-01 -2.5769249183548E-01
20  1.9000000000000E-01  5.1143267877227E-01 -2.7722977894129E-01
21  2.0000000000000E-01  5.4518350666148E-01 -2.9664482884477E-01
22  2.1000000000000E-01  5.7904121137691E-01 -3.1575021629063E-01
23  2.2000000000000E-01  6.1284752002960E-01 -3.3435287962182E-01
24  2.3000000000000E-01  6.4644057063294E-01 -3.5225764885330E-01
25  2.4000000000000E-01  6.7965792772252E-01 -3.6927084223056E-01
26  2.5000000000000E-01  7.1233960682964E-01 -3.8520385807184E-01
27  2.6000000000000E-01  7.4433104647061E-01 -3.9987668852666E-01
28  2.7000000000000E-01  7.7548596724721E-01 -4.1312128320042E-01
29  2.8000000000000E-01  8.0566905979858E-01 -4.2478469337295E-01
30  2.9000000000000E-01  8.3475844666089E-01 -4.3473193172750E-01
31  3.0000000000000E-01  8.6264786751700E-01 -4.4284848802703E-01
32  3.1000000000000E-01  8.8924854276744E-01 -4.4904244791959E-01
33  3.2000000000000E-01  9.1449067672297E-01 -4.5324616989550E-01
34  3.3000000000000E-01  9.3832456888217E-01 -4.5541748420088E-01
35  3.4000000000000E-01  9.6072130957720E-01 -4.5554038706455E-01
36  3.5000000000000E-01  9.8167304459174E-01 -4.5362521372947E-01
37  3.6000000000000E-01  1.0011928020164E+00 -4.4970828429525E-01
38  3.7000000000000E-01  1.0193138834349E+00 -4.4385102706686E-01
39  3.8000000000000E-01  1.0360888303571E+00 -4.3613859475322E-01
40  3.9000000000000E-01  1.0515879854571E+00 -4.2667799925404E-01
41  4.0000000000000E-01  1.0658976764614E+00 -4.1559580070684E-01
42  4.1000000000000E-01  1.0791180583018E+00 -4.0303539573616E-01
43  4.2000000000000E-01  1.0913606562429E+00 -3.8915395826591E-01
44  4.3000000000000E-01  1.1027456589681E+00 -3.7411909365142E-01
45  4.4000000000000E-01  1.1133990159385E+00 -3.5810527310580E-01
46  4.5000000000000E-01  1.1234493976129E+00 -3.4129012030705E-01
47  4.6000000000000E-01  1.1330250802433E+00 -3.2385062557063E-01
48  4.7000000000000E-01  1.1422508188770E+00 -3.0595936498068E-01
49  4.8000000000000E-01  1.1512447728544E+00 -2.8778080234218E-01
50  4.9000000000000E-01  1.1601155474722E+00 -2.6946775072704E-01
51  5.0000000000000E-01  1.1689594135941E+00 -2.5115806775197E-01
52  5.1000000000000E-01  1.1778577638642E+00 -2.3297165458726E-01
53  5.2000000000000E-01  1.1868748598613E+00 -2.1500782312508E-01
54  5.3000000000000E-01  1.1960559191131E+00 -1.9734308883527E-01
55  5.4000000000000E-01  1.2054255844645E+00 -1.8002943873345E-01
56  5.5000000000000E-01  1.2149868109767E+00 -1.6309311473185E-01
57  5.6000000000000E-01  1.2247201974784E+00 -1.4653394261276E-01
58  5.7000000000000E-01  1.2345837812345E+00 -1.3032522614866E-01
59  5.8000000000000E-01  1.2445133051168E+00 -1.1441421469889E-01
60  5.9000000000000E-01  1.2544229573305E+00 -9.8723141158389E-02
61  6.0000000000000E-01  1.2642065743466E+00 -8.3150815641951E-02
62  6.1000000000000E-01  1.2737392883992E+00 -6.7574748984754E-02
63  6.2000000000000E-01  1.2828795919180E+00 -5.1853769250867E-02
64  6.3000000000000E-01  1.2914717827398E+00 -3.5831084181822E-02
65  6.4000000000000E-01  1.2993487460716E+00 -1.9337733095797E-02
66  6.5000000000000E-01  1.3063350221009E+00 -2.1963633540992E-03
67  6.6000000000000E-01  1.3122501020179E+00  1.5774740679383E-02
68  6.7000000000000E-01  1.3169118901566E+00  3.4757454099754E-02
69  6.8000000000000E-01  1.3201402660808E+00  5.4929515618285E-02
70  6.9000000000000E-01  1.3217606778180E+00  7.6460224475120E-02
71  7.0000000000000E-01  1.3216076961484E+00  9.9506216308201E-02
72  7.1000000000000E-01  1.3195284599100E+00  1.2420740364096E-01
73  7.2000000000000E-01  1.3153859437049E+00  1.5068316442661E-01
74  7.3000000000000E-01  1.3090619821611E+00  1.7902885820830E-01
75  7.4000000000000E-01  1.3004599889776E+00  2.0931274397876E-01
76  7.5000000000000E-01  1.2895073142906E+00  2.4157336684514E-01
77  7.6000000000000E-01  1.2761571903494E+00  2.7581747224439E-01
78  7.7000000000000E-01  1.2603902229684E+00  3.1201849686324E-01
79  7.8000000000000E-01  1.2422153945889E+00  3.5011567476665E-01
80  7.9000000000000E-01  1.2216705538889E+00  3.9001378572774E-01
81  8.0000000000000E-01  1.1988223765454E+00  4.3158356059427E-01
82  8.1000000000000E-01  1.1737657918102E+00  4.7466274594974E-01
83  8.2000000000000E-01  1.1466228798063E+00  5.1905781757169E-01
84  8.3000000000000E-01  1.1175412546976E+00  5.6454631949659E-01
85  8.4000000000000E-01  1.0866919589334E+00  6.1087979311874E-01
86  8.5000000000000E-01  1.0542669034255E+00  6.5778724891678E-01
87  8.6000000000000E-01  1.0204758975883E+00  7.0497912235206E-01
88  8.7000000000000E-01  9.8554332149062E-01  7.5215164543481E-01
89  8.8000000000000E-01  9.4970449975405E-01  7.9899155661148E-01
90  8.9000000000000E-01  9.1320184315390E-01  8.4518106416952E-01
91  9.0000000000000E-01  8.7628082898684E-01  8.9040297244169E-01
92  9.1000000000000E-01  8.3918589507270E-01  9.3434587584821E-01
93  9.2000000000000E-01  8.0215632466222E-01  9.7670932334073E-01
94  9.3000000000000E-01  7.6542220047468E-01  1.0172088551707E+00
95  9.4000000000000E-01  7.2920050555748E-01  1.0555808151290E+00
96  9.5000000000000E-01  6.9369144664067E-01  1.0915868444873E+00
97  9.6000000000000E-01  6.5907507217798E-01  1.1250179687794E+00
98  9.7000000000000E-01  6.2550825237822E-01  1.1556981952091E+00
99  9.8000000000000E-01  5.9312208231217E-01  1.1834875467671E+00
100  9.9000000000000E-01  5.6201976174045E-01  1.2082844689275E+00
101  1.0000000000000E+00  5.3227499677353E-01  1.2300275559176E+00
102  1.0100000000000E+00  5.0393095900654E-01  1.2486965558026E+00
103  1.0200000000000E+00  4.7699982752053E-01  1.2643126268045E+00
104  1.0300000000000E+00  4.5146292831512E-01  1.2769378311164E+00
105  1.0400000000000E+00  4.2727147452827E-01  1.2866738667364E+00
106  1.0500000000000E+00  4.0434789939903E-01  1.2936600522809E+00
107  1.0600000000000E+00  3.8258776257342E-01  1.2980705940562E+00
108  1.0700000000000E+00  3.6186219925421E-01  1.3001111785914E+00
109  1.0800000000000E+00  3.4202087102850E-01  1.3000149471556E+00
110  1.0900000000000E+00  3.2289536724169E-01  1.2980379211524E+00
111  1.1000000000000E+00  3.0430299664195E-01  1.2944539585584E+00
112  1.1100000000000E+00  2.8605090093699E-01  1.2895493314526E+00
113  1.1200000000000E+00  2.6794041500620E-01  1.2836170230213E+00
114  1.1300000000000E+00  2.4977159295306E-01  1.2769508490139E+00
115  1.1400000000000E+00  2.3134781508068E-01  1.2698395133531E+00
116  1.1500000000000E+00  2.1248038831214E-01  1.2625607103360E+00
117  1.1600000000000E+00  1.9299305162287E-01  1.2553753865542E+00
118  1.1700000000000E+00  1.7272629874119E-01  1.2485222742510E+00
119  1.1800000000000E+00  1.5154143269894E-01  1.2422128043461E+00
120  1.1900000000000E+00  1.2932427075514E-01  1.2366265018291E+00
121  1.2000000000000E+00  1.0598842373025E-01  1.2319069587043E+00
122  1.2100000000000E+00  8.1478080730570E-02  1.2281584703653E+00
123  1.2200000000000E+00  5.5770238611497E-02  1.2254434101814E+00
124  1.2300000000000E+00  2.8876325027432E-02  1.2237804045835E+00
125  1.2400000000000E+00  8.4317453263945E-04  1.2231433570603E+00
126  1.2500000000000E+00 -2.8246671329864E-02  1.2234613545522E+00
127  1.2600000000000E+00 -5.8275356949304E-02  1.2246194741062E+00
128  1.2700000000000E+00 -8.9090802940272E-02  1.2264604913482E+00
129  1.2800000000000E+00 -1.2050848541427E-01  1.2287874759318E+00
130  1.2900000000000E+00 -1.5231388308800E-01  1.2313672427819E+00
131  1.3000000000000E+00 -1.8426555849825E-01  1.2339346118738E+00
132  1.3100000000000E+00 -2.1609882757337E-01  1.2361974139875E+00
133  1.3200000000000E+00 -2.4752996047961E-01  1.2378421655067E+00
134  1.3300000000000E+00 -2.7826084618059E-01  1.2385403220978E+00
135  1.3400000000000E+00 -3.0798404385409E-01  1.2379550094299E+00
136  1.3500000000000E+00 -3.3638813627501E-01  1.2357481190748E+00
137  1.3600000000000E+00 -3.6316329370088E-01  1.2315876496045E+00
138  1.3700000000000E+00 -3.8800695178211E-01  1.2251551668144E+00
139  1.3800000000000E+00 -4.1062950373886E-01  1.2161532532476E+00
140  1.3900000000000E+00 -4.3075990545846E-01  1.2043128150966E+00
141  1.4000000000000E+00 -4.4815109227318E-01  1.1894001145050E+00
142  1.4100000000000E+00 -4.6258510485983E-01  1.1712233612767E+00
143  1.4200000000000E+00 -4.7387775308136E-01  1.1496380092161E+00
144  1.4300000000000E+00 -4.8188258516276E-01  1.1245495480840E+00
145  1.4400000000000E+00 -4.8649421583895E-01  1.0959154373711E+00
146  1.4500000000000E+00 -4.8765097029552E-01  1.0637463257910E+00
147  1.4600000000000E+00 -4.8533677984560E-01  1.0281063723354E+00
148  1.4700000000000E+00 -4.7958230789278E-01  9.8911278816282E-01
149  1.4800000000000E+00 -4.7046529946466E-01  9.4693470319930E-01
150  1.4900000000000E+00 -4.5811016290480E-01  9.0179146145383E-01
151  1.5000000000000E+00 -4.4268680491624E-01  8.5395043504780E-01
152  1.5100000000000E+00 -4.2440874990990E-01  8.0372442312873E-01
153  1.5200000000000E+00 -4.0353058180130E-01  7.5146867285602E-01
154  1.5300000000000E+00 -3.8034475145950E-01  6.9757752974561E-01
155  1.5400000000000E+00 -3.5517779676599E-01  6.4248069941614E-01
156  1.5500000000000E+00 -3.2838602547880E-01  5.8663908531231E-01
157  1.5600000000000E+00 -3.0035071458288E-01  5.3054016024409E-01
158  1.5700000000000E+00 -2.7147288485257E-01  4.7469283898148E-01
159  1.5800000000000E+00 -2.4216771149019E-01  4.1962181490064E-01
160  1.5900000000000E+00 -2.1285864856853E-01  3.6586141240333E-01
161  1.6000000000000E+00 -1.8397132958942E-01  3.1394890656999E-01
162  1.6100000000000E+00 -1.5592735550052E-01  2.6441748749922E-01
163  1.6200000000000E+00 -1.2913799722902E-01  2.1778883110638E-01
164  1.6300000000000E+00 -1.0400294631460E-01  1.7457207602536E-01
165  1.6400000000000E+00 -8.0910163174492E-02  1.3526388642222E-01
166  1.6500000000000E+00 -6.0198251166307E-02  1.0029897336566E-01
167  1.6600000000000E+00 -4.2170424575684E-02  7.0068712267625E-02
168  1.6700000000000E+00 -2.7091622638208E-02  4.4917128369687E-02
169  1.6800000000000E+00 -1.5185694635353E-02  2.5137313072436E-02
170  1.6900000000000E+00 -6.6179708529811E-03  1.0943413184037E-02
171  1.7000000000000E+00 -1.5580740947384E-03  2.5749455038405E-03
172  1.7100000000000E+00  3.3004272485271E-05 -5.4704795151693E-05
173  1.7200000000000E+00 -5.1203898900329E-06  8.4639870941952E-06
174  1.73  0. -0.
175  1.74  0. -0.
176  1.75  0. -0.
177  1.76  0.  0.
178  1.77  0.  0.
179  1.78  0.  0.
180  1.79  0.  0.
181  1.80  0.  0.
182  1.81  0.  0.
183  1.82  0.  0.
184  1.83  0.  0.
185  1.84  0.  0.
186  1.85  0.  0.
187  1.86  0.  0.
188  1.87  0.  0.
189  1.88  0.  0.
190  1.89  0.  0.
191  1.90  0.  0.
192  1.91  0.  0.
193  1.92  0.  0.
194  1.93  0.  0.
195  1.94  0.  0.
196  1.95  0.  0.
197  1.96  0.  0.
198  1.97  0.  0.
199  1.98  0.  0.
200  1.99  0.  0.
201  2.00  0.  0.
202  2.01  0.  0.
203  2.02  0.  0.
204  2.03  0.  0.
205  2.04  0.  0.
206  2.05  0.  0.
207  2.06  0.  0.
208  2.07  0.  0.
209  2.08  0.  0.
210  2.09  0.  0.
211  2.10  0.  0.
212  2.11  0.  0.
213  2.12  0.  0.
214  2.13  0.  0.
215  2.14  0.  0.
216  2.15  0.  0.
217  2.16  0.  0.
218  2.17  0.  0.
219  2.18  0.  0.
220  2.19  0.  0.
221  2.20  0.  0.
222  2.21  0.  0.
223  2.22  0.  0.
224  2.23  0.  0.
225  2.24  0.  0.
226  2.25  0.  0.
227  2.26  0.  0.
228  2.27  0.  0.
229  2.28  0.  0.
230  2.29  0.  0.
231  2.30  0.  0.
232  2.31  0.  0.
233  2.32  0.  0.
234  2.33  0.  0.
235  2.34  0.  0.
236  2.35  0.  0.
237  2.36  0.  0.
238  2.37  0.  0.
239  2.38  0.  0.
240  2.39  0.  0.
241  2.40  0.  0.
242  2.41  0.  0.
243  2.42  0.  0.
244  2.43  0.  0.
245  2.44  0.  0.
246  2.45  0.  0.
247  2.46  0.  0.
248  2.47  0.  0.
249  2.48  0.  0.
250  2.49  0.  0.
251  2.50  0.  0.
252  2.51  0.  0.
253  2.52  0.  0.
254  2.53  0.  0.
255  2.54  0.  0.
256  2.55  0.  0.
257  2.56  0.  0.
258  2.57  0.  0.
259  2.58  0.  0.
260  2.59  0.  0.
261  2.60  0.  0.
262  2.61  0.  0.
263  2.62  0.  0.
264  2.63  0.  0.
265  2.64  0.  0.
266  2.65  0.  0.
267  2.66  0.  0.
268  2.67  0.  0.
269  2.68  0.  0.
270  2.69  0.  0.
271  2.70  0.  0.
272  2.71  0.  0.
273  2.72  0.  0.
274  2.73  0.  0.
275  2.74  0.  0.
276  2.75  0.  0.
277  2.76  0.  0.
278  2.77  0.  0.
279  2.78  0.  0.
280  2.79  0.  0.
281  2.80  0.  0.
282  2.81  0.  0.
283  2.82  0.  0.
284  2.83  0.  0.
285  2.84  0.  0.
286  2.85  0.  0.
287  2.86  0.  0.
288  2.87  0.  0.
289  2.88  0.  0.
290  2.89  0.  0.
291  2.90  0.  0.
292  2.91  0.  0.
293  2.92  0.  0.
294  2.93  0.  0.
295  2.94  0.  0.
296  2.95  0.  0.
297  2.96  0.  0.
298  2.97  0.  0.
299  2.98  0.  0.
300  2.99  0.  0.
301  3.00  0.  0.
302  3.01  0.  0.
303  3.02  0.  0.
304  3.03  0.  0.
305  3.04  0.  0.
306  3.05  0.  0.
307  3.06  0.  0.
308  3.07  0.  0.
309  3.08  0.  0.
310  3.09  0.  0.
311  3.10  0.  0.
312  3.11  0.  0.
313  3.12  0.  0.
314  3.13  0.  0.
315  3.14  0.  0.
316  3.15  0.  0.
317  3.16  0.  0.
318  3.17  0.  0.
319  3.18  0.  0.
320  3.19  0.  0.
321  3.20  0.  0.
322  3.21  0.  0.
323  3.22  0.  0.
324  3.23  0.  0.
325  3.24  0.  0.
326  3.25  0.  0.
327  3.26  0.  0.
328  3.27  0.  0.
329  3.28  0.  0.
330  3.29  0.  0.
331  3.30  0.  0.
332  3.31  0.  0.
333  3.32  0.  0.
334  3.33  0.  0.
335  3.34  0.  0.
336  3.35  0.  0.
337  3.36  0.  0.
338  3.37  0.  0.
339  3.38  0.  0.
340  3.39  0.  0.
341  3.40  0.  0.
342  3.41  0.  0.
343  3.42  0.  0.
344  3.43  0.  0.
345  3.44  0.  0.
346  3.45  0.  0.
347  3.46  0.  0.
348  3.47  0.  0.
349  3.48  0.  0.
350  3.49  0.  0.
351  3.50  0.  0.
352  3.51  0.  0.
353  3.52  0.  0.
354  3.53  0.  0.
355  3.54  0.  0.
356  3.55  0.  0.
357  3.56  0.  0.
358  3.57  0.  0.
359  3.58  0.  0.
360  3.59  0.  0.
361  3.60  0.  0.
362  3.61  0.  0.
363  3.62  0.  0.
364  3.63  0.  0.
365  3.64  0.  0.
366  3.65  0.  0.
367  3.66  0.  0.
368  3.67  0.  0.
369  3.68  0.  0.
370  3.69  0.  0.
371  3.70  0.  0.
372  3.71  0.  0.
373  3.72  0.  0.
374  3.73  0.  0.
375  3.74  0.  0.
376  3.75  0.  0.
377  3.76  0.  0.
378  3.77  0.  0.
379  3.78  0.  0.
380  3.79  0.  0.
381  3.80  0.  0.
382  3.81  0.  0.
383  3.82  0.  0.
384  3.83  0.  0.
385  3.84  0.  0.
386  3.85  0.  0.
387  3.86  0.  0.
388  3.87  0.  0.
389  3.88  0.  0.
390  3.89  0.  0.
391  3.90  0.  0.
392  3.91  0.  0.
393  3.92  0.  0.
394  3.93  0.  0.
395  3.94  0.  0.
396  3.95  0.  0.
397  3.96  0.  0.
398  3.97  0.  0.
399  3.98  0.  0.
400  3.99  0.  0.
401  4.00  0.  0.
402  4.01  0.  0.
403  4.02  0.  0.
404  4.03  0.  0.
405  4.04  0.  0.
406  4.05  0.  0.
407  4.06  0.  0.
408  4.07  0.  0.
409  4.08  0.  0.
410  4.09  0.  0.
411  4.10  0.  0.
412  4.11  0.  0.
413  4.12  0.  0.
414  4.13  0.  0.
415  4.14  0.  0.
416  4.15  0.  0.
417  4.16  0.  0.
418  4.17  0.  0.
419  4.18  0.  0.
420  4.19  0.  0.
421  4.20  0.  0.
422  4.21  0.  0.
423  4.22  0.  0.
424  4.23  0.  0.
425  4.24  0.  0.
426  4.25  0.  0.
427  4.26  0.  0.
428  4.27  0.  0.
429  4.28  0.  0.
430  4.29  0.  0.
431  4.30  0.  0.
432  4.31  0.  0.
433  4.32  0.  0.
434  4.33  0.  0.
435  4.34  0.  0.
436  4.35  0.  0.
437  4.36  0.  0.
438  4.37  0.  0.
439  4.38  0.  0.
440  4.39  0.  0.
441  4.40  0.  0.
442  4.41  0.  0.
443  4.42  0.  0.
444  4.43  0.  0.
445  4.44  0.  0.
446  4.45  0.  0.
447  4.46  0.  0.
448  4.47  0.  0.
449  4.48  0.  0.
450  4.49  0.  0.
451  4.50  0.  0.
452  4.51  0.  0.
453  4.52  0.  0.
454  4.53  0.  0.
455  4.54  0.  0.
456  4.55  0.  0.
457  4.56  0.  0.
458  4.57  0.  0.
459  4.58  0.  0.
460  4.59  0.  0.
461  4.60  0.  0.
462  4.61  0.  0.
463  4.62  0.  0.
464  4.63  0.  0.
465  4.64  0.  0.
466  4.65  0.  0.
467  4.66  0.  0.
468  4.67  0.  0.
469  4.68  0.  0.
470  4.69  0.  0.
471  4.70  0.  0.
472  4.71  0.  0.
473  4.72  0.  0.
474  4.73  0.  0.
475  4.74  0.  0.
476  4.75  0.  0.
477  4.76  0.  0.
478  4.77  0.  0.
479  4.78  0.  0.
480  4.79  0.  0.
481  4.80  0.  0.
482  4.81  0.  0.
483  4.82  0.  0.
484  4.83  0.  0.
485  4.84  0.  0.
486  4.85  0.  0.
487  4.86  0.  0.
488  4.87  0.  0.
489  4.88  0.  0.
490  4.89  0.  0.
491  4.90  0.  0.
492  4.91  0.  0.
493  4.92  0.  0.
494  4.93  0.  0.
495  4.94  0.  0.
496  4.95  0.  0.
497  4.96  0.  0.
498  4.97  0.  0.
499  4.98  0.  0.
500  4.99  0.  0.
501  5.00  0.  0.
502  5.01  0.  0.
503  5.02  0.  0.
504  5.03  0.  0.
505  5.04  0.  0.
506  5.05  0.  0.
507  5.06  0.  0.
508  5.07  0.  0.
509  5.08  0.  0.
510  5.09  0.  0.
511  5.10  0.  0.
512  5.11  0.  0.
513  5.12  0.  0.
514  5.13  0.  0.
515  5.14  0.  0.
516  5.15  0.  0.
517  5.16  0.  0.
518  5.17  0.  0.
519  5.18  0.  0.
520  5.19  0.  0.
521  5.20  0.  0.
522  5.21  0.  0.
523  5.22  0.  0.
524  5.23  0.  0.
525  5.24  0.  0.
526  5.25  0.  0.
527  5.26  0.  0.
528  5.27  0.  0.
529  5.28  0.  0.
530  5.29  0.  0.
531  5.30  0.  0.
532  5.31  0.  0.
533  5.32  0.  0.
534  5.33  0.  0.
535  5.34  0.  0.
536  5.35  0.  0.
537  5.36  0.  0.
538  5.37  0.  0.
539  5.38  0.  0.
540  5.39  0.  0.
541  5.40  0.  0.
542  5.41  0.  0.
543  5.42  0.  0.
544  5.43  0.  0.
545  5.44  0.  0.
546  5.45  0.  0.
547  5.46  0.  0.
548  5.47  0.  0.
549  5.48  0.  0.
550  5.49  0.  0.
551  5.50  0.  0.
552  5.51  0.  0.
553  5.52  0.  0.
554  5.53  0.  0.
555  5.54  0.  0.
556  5.55  0.  0.
557  5.56  0.  0.
558  5.57  0.  0.
559  5.58  0.  0.
560  5.59  0.  0.
561  5.60  0.  0.
562  5.61  0.  0.
563  5.62  0.  0.
564  5.63  0.  0.
565  5.64  0.  0.
566  5.65  0.  0.
567  5.66  0.  0.
568  5.67  0.  0.
569  5.68  0.  0.
570  5.69  0.  0.
571  5.70  0.  0.
572  5.71  0.  0.
573  5.72  0.  0.
574  5.73  0.  0.
575  5.74  0.  0.
576  5.75  0.  0.
577  5.76  0.  0.
578  5.77  0.  0.
579  5.78  0.  0.
580  5.79  0.  0.
581  5.80  0.  0.
582  5.81  0.  0.
583  5.82  0.  0.
584  5.83  0.  0.
585  5.84  0.  0.
586  5.85  0.  0.
587  5.86  0.  0.
588  5.87  0.  0.
589  5.88  0.  0.
590  5.89  0.  0.
591  5.90  0.  0.
592  5.91  0.  0.
593  5.92  0.  0.
594  5.93  0.  0.
595  5.94  0.  0.
596  5.95  0.  0.
597  5.96  0.  0.
598  5.97  0.  0.
599  5.98  0.  0.
600  5.99  0.  0.
1                         3.1323795371200E+00  1.0271919977703E+00
1  0.0000000000000E+00 -3.1578530207410E-08  9.7817213452409E-09
2  1.0000000000000E-02 -9.0919098492054E-04 -5.1280930233855E-05
3  2.0000000000000E-02 -3.6011865305051E-03 -2.1347252159459E-04
4  3.0000000000000E-02 -7.9701022803379E-03 -5.1137540169434E-04
5  4.0000000000000E-02 -1.3842271511331E-02 -9.8551065618538E-04
6  5.0000000000000E-02 -2.0980389742021E-02 -1.6909205910328E-03
7  6.0000000000000E-02 -2.9089186278562E-02 -2.6955307163671E-03
8  7.0000000000000E-02 -3.7822495238322E-02 -4.0781127386001E-03
9  8.0000000000000E-02 -4.6791567012429E-02 -5.9258981292081E-03
10  9.0000000000000E-02 -5.5574433035426E-02 -8.3319004797202E-03
11  1.0000000000000E-01 -6.3726112740250E-02 -1.1392012152453E-02
12  1.1000000000000E-01 -7.0789432220328E-02 -1.5201946524961E-02
13  1.2000000000000E-01 -7.6306209827502E-02 -1.9854101266162E-02
14  1.3000000000000E-01 -7.9828555025391E-02 -2.5434420473914E-02
15  1.4000000000000E-01 -8.0930023497302E-02 -3.2019334086751E-02
16  1.5000000000000E-01 -7.9216373859185E-02 -3.9672851736577E-02
17  1.6000000000000E-01 -7.4335679312442E-02 -4.8443885155517E-02
18  1.7000000000000E-01 -6.5987561026953E-02 -5.8363868450959E-02
19  1.8000000000000E-01 -5.3931328691537E-02 -6.9444739119457E-02
20  1.9000000000000E-01 -3.7992837113524E-02 -8.1677334721907E-02
21  2.0000000000000E-01 -1.8069895493419E-02 -9.5030250862416E-02
22  2.1000000000000E-01  5.8639025480731E-03 -1.0944919570610E-01
23  2.2000000000000E-01  3.3757025629058E-02 -1.2485686496694E-01
24  2.3000000000000E-01  6.5479588614540E-02 -1.4115334934775E-01
25  2.4000000000000E-01  1.0082469636363E-01 -1.5821707408807E-01
26  2.5000000000000E-01  1.3951153066369E-01 -1.7590625784978E-01
27  2.6000000000000E-01  1.8119012503319E-01 -1.9406086592573E-01
28  2.7000000000000E-01  2.2544773432996E-01 -2.1250502097365E-01
29  2.8000000000000E-01  2.7181667020228E-01 -2.3104982342518E-01
30  2.9000000000000E-01  3.1978344015676E-01 -2.4949652365519E-01
31  3.0000000000000E-01  3.6879899812222E-01 -2.6763997915467E-01
32  3.1000000000000E-01  4.1828988852991E-01 -2.8527232254112E-01
33  3.2000000000000E-01  4.6767004468644E-01 -3.0218676044365E-01
34  3.3000000000000E-01  5.1635298607227E-01 -3.1818141926022E-01
35  3.4000000000000E-01  5.6376414853023E-01 -3.3306315160878E-01
36  3.5000000000000E-01  6.0935307637668E-01 -3.4665121704888E-01
37  3.6000000000000E-01  6.5260520641000E-01 -3.5878075235932E-01
38  3.7000000000000E-01  6.9305298061965E-01 -3.6930595030171E-01
39  3.8000000000000E-01  7.3028603700033E-01 -3.7810287131666E-01
40  3.9000000000000E-01  7.6396024601137E-01 -3.8507181988531E-01
41  4.0000000000000E-01  7.9380538353350E-01 -3.9013922619871E-01
42  4.1000000000000E-01  8.1963125919231E-01 -3.9325898413060E-01
43  4.2000000000000E-01  8.4133215106610E-01 -3.9441320809029E-01
44  4.3000000000000E-01  8.5888943340931E-01 -3.9361238389693E-01
45  4.4000000000000E-01  8.7237232235892E-01 -3.9089490209779E-01
46  4.5000000000000E-01  8.8193670484229E-01 -3.8632597586359E-01
47  4.6000000000000E-01  8.8782205722212E-01 -3.7999595943586E-01
48  4.7000000000000E-01  8.9034650171582E-01 -3.7201809676966E-01
49  4.8000000000000E-01  8.8990008942677E-01 -3.6252574320661E-01
50  4.9000000000000E-01  8.8693643804305E-01 -3.5166911543101E-01
51  5.0000000000000E-01  8.8196288904666E-01 -3.3961163632391E-01
52  5.1000000000000E-01  8.7552938282736E-01 -3.2652595137287E-01
53  5.2000000000000E-01  8.6821627967165E-01 -3.1258970178299E-01
54  5.3000000000000E-01  8.6062137953672E-01 -2.9798114616133E-01
55  5.4000000000000E-01  8.5334641325627E-01 -2.8287472744348E-01
56  5.5000000000000E-01  8.4698329189943E-01 -2.6743668446685E-01
57  5.6000000000000E-01  8.4210040907257E-01 -2.5182080818600E-01
58  5.7000000000000E-01  8.3922929279869E-01 -2.3616444092775E-01
59  5.8000000000000E-01  8.3885189914175E-01 -2.2058481330574E-01
60  5.9000000000000E-01  8.4138882900899E-01 -2.0517580750738E-01
61  6.0000000000000E-01  8.4718873273966E-01 -1.9000522773063E-01
62  6.1000000000000E-01  8.5651914448115E-01 -1.7511264872792E-01
63  6.2000000000000E-01  8.6955896039389E-01 -1.6050790189653E-01
64  6.3000000000000E-01  8.8639274196218E-01 -1.4617024536348E-01
65  6.4000000000000E-01  9.0700698876978E-01 -1.3204825030841E-01
66  6.5000000000000E-01  9.3128848477216E-01 -1.1806042063830E-01
67  6.6000000000000E-01  9.5902477918243E-01 -1.0409654738530E-01
68  6.7000000000000E-01  9.8990681846540E-01 -9.0019783171828E-02
69  6.8000000000000E-01  1.0235337005293E+00 -7.5669406114695E-02
70  6.9000000000000E-01  1.0594194769650E+00 -6.0864226964931E-02
71  7.0000000000000E-01  1.0970018850569E+00 -4.5406578438555E-02
72  7.1000000000000E-01  1.1356528492143E+00 -2.9086811915097E-02
73  7.2000000000000E-01  1.1746905523494E+00 -1.1688214270763E-02
74  7.3000000000000E-01  1.2133928423966E+00  7.0077531422090E-03
75  7.4000000000000E-01  1.2510117084045E+00  2.7216000208516E-02
76  7.5000000000000E-01  1.2867885351217E+00  4.9142252022596E-02
77  7.6000000000000E-01  1.3199698253125E+00  7.2977509122515E-02
78  7.7000000000000E-01  1.3498230656518E+00  9.8892643997836E-02
79  7.8000000000000E-01  1.3756524052845E+00  1.2703325339460E-01
80  7.9000000000000E-01  1.3968138162071E+00  1.5751488292241E-01
81  8.0000000000000E-01  1.4127294115856E+00  1.9041873494723E-01
82  8.1000000000000E-01  1.4229006118976E+00  2.2578796280646E-01
83  8.2000000000000E-01  1.4269198691387E+00  2.6362464414005E-01
84  8.3000000000000E-01  1.4244806859192E+00  3.0388751377049E-01
85  8.4000000000000E-01  1.4153856985943E+00  3.4649052231209E-01
86  8.5000000000000E-01  1.3995526310057E+00  3.9130227081229E-01
87  8.6000000000000E-01  1.3770179672440E+00  4.3814635453027E-01
88  8.7000000000000E-01  1.3479382372450E+00  4.8680263077629E-01
89  8.8000000000000E-01  1.3125888571028E+00  5.3700940693042E-01
90  8.9000000000000E-01  1.2713605157646E+00  5.8846652570965E-01
91  9.0000000000000E-01  1.2247531502463E+00  6.4083930584681E-01
92  9.1000000000000E-01  1.1733676016497E+00  6.9376327797490E-01
93  9.2000000000000E-01  1.1178950930417E+00  7.4684963805955E-01
94  9.3000000000000E-01  1.0591047166578E+00  7.9969132456472E-01
95  9.4000000000000E-01  9.9782916093534E-01  8.5186961102055E-01
96  9.5000000000000E-01  9.3494894667155E-01  9.0296109310975E-01
97  9.6000000000000E-01  8.7137547528799E-01  9.5254493908566E-01
98  9.7000000000000E-01  8.0803322003181E-01  1.0002102645252E+00
99  9.8000000000000E-01  7.4584141234793E-01  1.0455634872975E+00
100  9.9000000000000E-01  6.8569559009309E-01  1.0882355163430E+00
101  1.0000000000000E+00  6.2844938138751E-01  1.1278886284915E+00
102  1.0100000000000E+00  5.7489689750159E-01  1.1642228911369E+00
103  1.0200000000000E+00  5.2575610017649E-01  1.1969819950971E+00
104  1.0300000000000E+00  4.8165349326951E-01  1.2259583713463E+00
105  1.0400000000000E+00  4.4311046587713E-01  1.2509974773346E+00
106  1.0500000000000E+00  4.1053158444164E-01  1.2720011531550E+00
107  1.0600000000000E+00  3.8419509538333E-01  1.2889299645812E+00
108  1.0700000000000E+00  3.6424585821939E-01  1.3018044686799E+00
109  1.0800000000000E+00  3.5069088254617E-01  1.3107053580172E+00
110  1.0900000000000E+00  3.4339759186273E-01  1.3157724609263E+00
111  1.1000000000000E+00  3.4209488363993E-01  1.3172025976169E+00
112  1.1100000000000E+00  3.4637699962926E-01  1.3152463145290E+00
113  1.1200000000000E+00  3.5571016409101E-01  1.3102035418926E+00
114  1.1300000000000E+00  3.6944189153711E-01  1.3024182414945E+00
115  1.1400000000000E+00  3.8681281099276E-01  1.2922721326755E+00
116  1.1500000000000E+00  4.0697080154991E-01  1.2801776042560E+00
117  1.1600000000000E+00  4.2898718547852E-01  1.2665699378847E+00
118  1.1700000000000E+00  4.5187468109737E-01  1.2518989839649E+00
119  1.1800000000000E+00  4.7460677912734E-01  1.2366204444058E+00
120  1.1900000000000E+00  4.9613817406736E-01  1.2211869267345E+00
121  1.2000000000000E+00  5.1542585692855E-01  1.2060389413262E+00
122  1.2100000000000E+00  5.3145045812609E-01  1.1915960174814E+00
123  1.2200000000000E+00  5.4323741970728E-01  1.1782481146818E+00
124  1.2300000000000E+00  5.4987757480011E-01  1.1663475025415E+00
125  1.2400000000000E+00  5.5054671919860E-01  1.1562012767359E+00
126  1.2500000000000E+00  5.4452377541931E-01  1.1480646685785E+00
127  1.2600000000000E+00  5.3120717284474E-01  1.1421352932147E+00
128  1.2700000000000E+00  5.1012909881585E-01  1.1385484655532E+00
129  1.2800000000000E+00  4.8096731371964E-01  1.1373736945907E+00
130  1.2900000000000E+00  4.4355426760935E-01  1.1386124459613E+00
131  1.3000000000000E+00  3.9788330637959E-01  1.1421972395190E+00
132  1.3100000000000E+00  3.4411181032608E-01  1.1479921242818E+00
133  1.3200000000000E+00  2.8256116627354E-01  1.1557945474511E+00
134  1.3300000000000E+00  2.1371353570127E-01  1.1653386077564E+00
135  1.3400000000000E+00  1.3820544344204E-01  1.1762996569130E+00
136  1.3500000000000E+00  5.6818273950003E-02  1.1883001867647E+00
137  1.3600000000000E+00 -2.9534176759020E-02  1.2009169143799E+00
138  1.3700000000000E+00 -1.1982088629104E-01  1.2136889532602E+00
139  1.3800000000000E+00 -2.1291126586173E-01  1.2261269368126E+00
140  1.3900000000000E+00 -3.0759498191701E-01  1.2377229397608E+00
141  1.4000000000000E+00 -4.0260358121802E-01  1.2479610252633E+00
142  1.4100000000000E+00 -4.9663351885447E-01  1.2563281947989E+00
143  1.4200000000000E+00 -5.8837007624549E-01  1.2623248314368E+00
144  1.4300000000000E+00 -6.7651155270869E-01  1.2654733836096E+00
145  1.4400000000000E+00 -7.5979341172559E-01  1.2653268101917E+00
146  1.4500000000000E+00 -8.3701194810698E-01  1.2614768024238E+00
147  1.4600000000000E+00 -9.0704701014435E-01  1.2535614673764E+00
148  1.4700000000000E+00 -9.6888335768905E-01  1.2412724462295E+00
149  1.4800000000000E+00 -1.0216302614085E+00  1.2243614193439E+00
150  1.4900000000000E+00 -1.0645389812589E+00  1.2026459481048E+00
151  1.5000000000000E+00 -1.0970177996665E+00  1.1760145918332E+00
152  1.5100000000000E+00 -1.1186443263200E+00  1.1444312208384E+00
153  1.5200000000000E+00 -1.1291748365345E+00  1.1079384281509E+00
154  1.5300000000000E+00 -1.1285504536778E+00  1.0666599263092E+00
155  1.5400000000000E+00 -1.1169000377398E+00  1.0208018063884E+00
156  1.5500000000000E+00 -1.0945396969771E+00  9.7065253669134E-01