Al    ONCVPSP-4.0.1  r_core=   1.75068   1.75068   1.70928
13.0000      3.0000      241226    zatom,zion,pspd
8      11   2     4   600     0    pspcod,pspxc,lmax,lloc,mmax,r2well
5.99000000  5.00000000  0.00000000    rchrg fchrg qchrg
2     2     2     0     0    nproj
1     1           extension_switch
0                        -5.3903246672498E+00  2.1011525357119E+00
1  0.0000000000000E+00 -4.8672514907366E-09  1.5538846355467E-09
2  1.0000000000000E-02  6.5896202863731E-02 -2.5214400623885E-03
3  2.0000000000000E-02  1.3151409173303E-01 -4.9482184046726E-03
4  3.0000000000000E-02  1.9657910087777E-01 -7.1869525811666E-03
5  4.0000000000000E-02  2.6082409296829E-01 -9.1467963520355E-03
6  5.0000000000000E-02  3.2399290423073E-01 -1.0740652335591E-02
7  6.0000000000000E-02  3.8584369029671E-01 -1.1886319251563E-02
8  7.0000000000000E-02  4.4615201215464E-01 -1.2507553816420E-02
9  8.0000000000000E-02  5.0471360647714E-01 -1.2535028905679E-02
10  9.0000000000000E-02  5.6134679051115E-01 -1.1907171486692E-02
11  1.0000000000000E-01  6.1589445856214E-01 -1.0570866013936E-02
12  1.1000000000000E-01  6.6822563475614E-01 -8.4820114275596E-03
13  1.2000000000000E-01  7.1823655507755E-01 -5.6059225601536E-03
14  1.3000000000000E-01  7.6585126050374E-01 -1.9175695875191E-03
15  1.4000000000000E-01  8.1102169222303E-01  2.5983478946821E-03
16  1.5000000000000E-01  8.5372728925981E-01  7.9474925794025E-03
17  1.6000000000000E-01  8.9397409816485E-01  1.4126144339182E-02
18  1.7000000000000E-01  9.3179341358500E-01  2.1121612732286E-02
19  1.8000000000000E-01  9.6723997733335E-01  2.8912798694808E-02
20  1.9000000000000E-01  1.0003897718728E+00  3.7470894282998E-02
21  2.0000000000000E-01  1.0313374517482E+00  4.6760206828283E-02
22  2.1000000000000E-01  1.0601934633088E+00  5.6739091616207E-02
23  2.2000000000000E-01  1.0870809089302E+00  6.7360975241007E-02
24  2.3000000000000E-01  1.1121322167547E+00  7.8575450155708E-02
25  2.4000000000000E-01  1.1354856806400E+00  9.0329419663351E-02
26  2.5000000000000E-01  1.1572819374560E+00  1.0256827170165E-01
27  2.6000000000000E-01  1.1776604500613E+00  1.1523705927758E-01
28  2.7000000000000E-01  1.1967560641964E+00  1.2828166531902E-01
29  2.8000000000000E-01  1.2146957061447E+00  1.4164993003018E-01
30  2.9000000000000E-01  1.2315952853700E+00  1.5529271955890E-01
31  3.0000000000000E-01  1.2475568624748E+00  1.6916491589635E-01
32  3.1000000000000E-01  1.2626661378209E+00  1.8322630941022E-01
33  3.2000000000000E-01  1.2769903100883E+00  1.9744237723704E-01
34  3.3000000000000E-01  1.2905763470513E+00  2.1178493289217E-01
35  3.4000000000000E-01  1.3034497030308E+00  2.2623263486035E-01
36  3.5000000000000E-01  1.3156135089999E+00  2.4077134456027E-01
37  3.6000000000000E-01  1.3270482523222E+00  2.5539432688623E-01
38  3.7000000000000E-01  1.3377119537670E+00  2.7010228946694E-01
39  3.8000000000000E-01  1.3475408399328E+00  2.8490325979237E-01
40  3.9000000000000E-01  1.3564504997126E+00  2.9981230238904E-01
41  4.0000000000000E-01  1.3643375041171E+00  3.1485108121683E-01
42  4.1000000000000E-01  1.3710814598207E+00  3.3004727536192E-01
43  4.2000000000000E-01  1.3765474583662E+00  3.4543385885658E-01
44  4.3000000000000E-01  1.3805888752318E+00  3.6104825801769E-01
45  4.4000000000000E-01  1.3830504660614E+00  3.7693140201455E-01
46  4.5000000000000E-01  1.3837717014251E+00  3.9312668440926E-01
47  4.6000000000000E-01  1.3825902766268E+00  4.0967885512370E-01
48  4.7000000000000E-01  1.3793457293990E+00  4.2663286364259E-01
49  4.8000000000000E-01  1.3738830958981E+00  4.4403267523766E-01
50  4.9000000000000E-01  1.3660565342850E+00  4.6192008257553E-01
51  5.0000000000000E-01  1.3557328453750E+00  4.8033353523911E-01
52  5.1000000000000E-01  1.3427948213594E+00  4.9930700944700E-01
53  5.2000000000000E-01  1.3271443564337E+00  5.1886893959982E-01
54  5.3000000000000E-01  1.3087052572458E+00  5.3904123222856E-01
55  5.4000000000000E-01  1.2874256963462E+00  5.5983838148683E-01
56  5.5000000000000E-01  1.2632802581848E+00  5.8126670354043E-01
57  5.6000000000000E-01  1.2362715345333E+00  6.0332370509744E-01
58  5.7000000000000E-01  1.2064312344036E+00  6.2599759892681E-01
59  5.8000000000000E-01  1.1738207824115E+00  6.4926697657647E-01
60  5.9000000000000E-01  1.1385313889588E+00  6.7310064567148E-01
61  6.0000000000000E-01  1.1006835853915E+00  6.9745763619893E-01
62  6.1000000000000E-01  1.0604262272597E+00  7.2228737712378E-01
63  6.2000000000000E-01  1.0179349787773E+00  7.4753004158330E-01
64  6.3000000000000E-01  9.7341030136397E-01  7.7311705583523E-01
65  6.4000000000000E-01  9.2707497857079E-01  7.9897176413916E-01
66  6.5000000000000E-01  8.7917121856888E-01  8.2501023889026E-01
67  6.6000000000000E-01  8.2995738354703E-01  8.5114222264853E-01
68  6.7000000000000E-01  7.7970440266564E-01  8.7727218626619E-01
69  6.8000000000000E-01  7.2869193151384E-01  9.0330048515443E-01
70  6.9000000000000E-01  6.7720432618820E-01  9.2912459388962E-01
71  7.0000000000000E-01  6.2552650405594E-01  9.5464039787102E-01
72  7.1000000000000E-01  5.7393976590325E-01  9.7974351963589E-01
73  7.2000000000000E-01  5.2271765544280E-01  1.0043306567349E+00
74  7.3000000000000E-01  4.7212193203273E-01  1.0283009077834E+00
75  7.4000000000000E-01  4.2239873093943E-01  1.0515570634404E+00
76  7.5000000000000E-01  3.7377498257037E-01  1.0740068396235E+00
77  7.6000000000000E-01  3.2645515786668E-01  1.0955640312399E+00
78  7.7000000000000E-01  2.8061840153774E-01  1.1161495660765E+00
79  7.8000000000000E-01  2.3641610814114E-01  1.1356924402326E+00
80  7.9000000000000E-01  1.9396998827393E-01  1.1541305185580E+00
81  8.0000000000000E-01  1.5337066348097E-01  1.1714111859451E+00
82  8.1000000000000E-01  1.1467681905421E-01  1.1874918379715E+00
83  8.2000000000000E-01  7.7914933863087E-02  1.2023402022555E+00
84  8.3000000000000E-01  4.3079595898312E-02  1.2159344849155E+00
85  8.4000000000000E-01  1.0134401517801E-02  1.2282633396638E+00
86  8.5000000000000E-01 -2.0986574351535E-02  1.2393256602629E+00
87  8.6000000000000E-01 -5.0376760384386E-02  1.2491302002587E+00
88  8.7000000000000E-01 -7.8154556962845E-02  1.2576950270415E+00
89  8.8000000000000E-01 -1.0446033347948E-01  1.2650468202953E+00
90  8.9000000000000E-01 -1.2945300708307E-01  1.2712200277392E+00
91  9.0000000000000E-01 -1.5330626321142E-01  1.2762558936832E+00
92  9.1000000000000E-01 -1.7620448531996E-01  1.2802013782662E+00
93  9.2000000000000E-01 -1.9833846710369E-01  1.2831079872791E+00
94  9.3000000000000E-01 -2.1990098511622E-01  1.2850305341535E+00
95  9.4000000000000E-01 -2.4108231291274E-01  1.2860258569970E+00
96  9.5000000000000E-01 -2.6206575962258E-01  1.2861515144443E+00
97  9.6000000000000E-01 -2.8302331614458E-01  1.2854644845580E+00
98  9.7000000000000E-01 -3.0411149094201E-01  1.2840198910471E+00
99  9.8000000000000E-01 -3.2546741470323E-01  1.2818697806598E+00
100  9.9000000000000E-01 -3.4720528896760E-01  1.2790619747773E+00
101  1.0000000000000E+00 -3.6941324825798E-01  1.2756390169762E+00
102  1.0100000000000E+00 -3.9215069840645E-01  1.2716372366856E+00
103  1.0200000000000E+00 -4.1544618571163E-01  1.2670859470418E+00
104  1.0300000000000E+00 -4.3929584246999E-01  1.2620067927025E+00
105  1.0400000000000E+00 -4.6366244443901E-01  1.2564132607383E+00
106  1.0500000000000E+00 -4.8847510507023E-01  1.2503103648395E+00
107  1.0600000000000E+00 -5.1362962010330E-01  1.2436945099944E+00
108  1.0700000000000E+00 -5.3898946453665E-01  1.2365535415844E+00
109  1.0800000000000E+00 -5.6438743225218E-01  1.2288669795337E+00
110  1.0900000000000E+00 -5.8962789695249E-01  1.2206064348381E+00
111  1.1000000000000E+00 -6.1448966169134E-01  1.2117362025041E+00
112  1.1100000000000E+00 -6.3872935342231E-01  1.2022140217405E+00
113  1.1200000000000E+00 -6.6208530880568E-01  1.1919919912079E+00
114  1.1300000000000E+00 -6.8428188820359E-01  1.1810176242937E+00
115  1.1400000000000E+00 -7.0503414653898E-01  1.1692350268149E+00
116  1.1500000000000E+00 -7.2405278262561E-01  1.1565861772751E+00
117  1.1600000000000E+00 -7.4104928285859E-01  1.1430122878873E+00
118  1.1700000000000E+00 -7.5574117087166E-01  1.1284552230308E+00
119  1.1800000000000E+00 -7.6785727202630E-01  1.1128589506874E+00
120  1.1900000000000E+00 -7.7714290044418E-01  1.0961710017012E+00
121  1.2000000000000E+00 -7.8336487677531E-01  1.0783439114645E+00
122  1.2100000000000E+00 -7.8631628698630E-01  1.0593366188289E+00
123  1.2200000000000E+00 -7.8582089618167E-01  1.0391157976991E+00
124  1.2300000000000E+00 -7.8173713670784E-01  1.0176570978593E+00
125  1.2400000000000E+00 -7.7396159652795E-01  9.9494627309167E-01
126  1.2500000000000E+00 -7.6243194195978E-01  9.7098017657096E-01
127  1.2600000000000E+00 -7.4712921813700E-01  9.4576760577296E-01
128  1.2700000000000E+00 -7.2807948099786E-01  9.1932998175231E-01
129  1.2800000000000E+00 -7.0535472586731E-01  8.9170185051292E-01
130  1.2900000000000E+00 -6.7907308965538E-01  8.6293119729072E-01
131  1.3000000000000E+00 -6.4939831624234E-01  8.3307956786126E-01
132  1.3100000000000E+00 -6.1653848736175E-01  8.0222199437011E-01
133  1.3200000000000E+00 -5.8074403409543E-01  7.7044672662385E-01
134  1.3300000000000E+00 -5.4230505681278E-01  7.3785477323576E-01
135  1.3400000000000E+00 -5.0154799363196E-01  7.0455926038539E-01
136  1.3500000000000E+00 -4.5883168915986E-01  6.7068461919971E-01
137  1.3600000000000E+00 -4.1454292610390E-01  6.3636561581723E-01
138  1.3700000000000E+00 -3.6909149223130E-01  6.0174624102545E-01
139  1.3800000000000E+00 -3.2290486379816E-01  5.6697847895283E-01
140  1.3900000000000E+00 -2.7642259379943E-01  5.3222097616830E-01
141  1.4000000000000E+00 -2.3009049883702E-01  4.9763763386402E-01
142  1.4100000000000E+00 -1.8435473426372E-01  4.6339612296645E-01
143  1.4200000000000E+00 -1.3965567015685E-01  4.2966587026819E-01
144  1.4300000000000E+00 -9.6421309415644E-02  3.9661483046298E-01
145  1.4400000000000E+00 -5.5060671477305E-02  3.6440621486961E-01
146  1.4500000000000E+00 -1.5957305532473E-02  3.3319535393137E-01
147  1.4600000000000E+00  2.0536983409900E-02  3.0312664660626E-01
148  1.4700000000000E+00  5.4108040316398E-02  2.7433073664730E-01
149  1.4800000000000E+00  8.4484742808285E-02  2.4692203311714E-01
150  1.4900000000000E+00  1.1144370775972E-01  2.2099667926239E-01
151  1.5000000000000E+00  1.3481318011330E-01  1.9663105091100E-01
152  1.5100000000000E+00  1.5447598239065E-01  1.7388083592922E-01
153  1.5200000000000E+00  1.7037143120556E-01  1.5278071321235E-01
154  1.5300000000000E+00  1.8249616089556E-01  1.3334461609703E-01
155  1.5400000000000E+00  1.9090383101578E-01  1.1556653488318E-01
156  1.5500000000000E+00  1.9570373150296E-01  9.9421788425266E-02
157  1.5600000000000E+00  1.9705833388436E-01  8.4868677651994E-02
158  1.5700000000000E+00  1.9517986477135E-01  7.1850428101989E-02
159  1.5800000000000E+00  1.9032601023119E-01  6.0297314833945E-02
160  1.5900000000000E+00  1.8279484843551E-01  5.0128911334540E-02
161  1.6000000000000E+00  1.7291917429815E-01  4.1256331421927E-02
162  1.6100000000000E+00  1.6106030659075E-01  3.3584463025548E-02
163  1.6200000000000E+00  1.4760153895669E-01  2.7014102088494E-02
164  1.6300000000000E+00  1.3294134930569E-01  2.1443973191885E-02
165  1.6400000000000E+00  1.1748649342548E-01  1.6772614469340E-02
166  1.6500000000000E+00  1.0164508594233E-01  1.2900116409317E-02
167  1.6600000000000E+00  8.5819815693291E-02  9.7297058851735E-03
168  1.6700000000000E+00  7.0401898397415E-02  7.1692620580917E-03
169  1.6800000000000E+00  5.5764266780749E-02  5.1328008730908E-03
170  1.6900000000000E+00  4.2253052046445E-02  3.5412636203660E-03
171  1.7000000000000E+00  3.0185461957044E-02  2.3234507903905E-03
172  1.7100000000000E+00  1.9844838962687E-02  1.4169339636424E-03
173  1.7200000000000E+00  1.1476661066732E-02  7.6883496508064E-04
174  1.7300000000000E+00  5.2820508374658E-03  3.3627065207478E-04
175  1.7400000000000E+00  1.4204679832538E-03  8.7145782859468E-05
176  1.7500000000000E+00  2.8261111922469E-05  1.6799781608246E-06
177  1.7600000000000E+00 -1.6089119046028E-05 -9.4439359973430E-07
178  1.7700000000000E+00  8.9391844694010E-06  5.3225777432771E-07
179  1.78 -0. -0.
180  1.79  0.  0.
181  1.80  0.  0.
182  1.81  0.  0.
183  1.82  0.  0.
184  1.83  0.  0.
185  1.84  0.  0.
186  1.85  0.  0.
187  1.86  0.  0.
188  1.87  0.  0.
189  1.88  0.  0.
190  1.89  0.  0.
191  1.90  0.  0.
192  1.91  0.  0.
193  1.92  0.  0.
194  1.93  0.  0.
195  1.94  0.  0.
196  1.95  0.  0.
197  1.96  0.  0.
198  1.97  0.  0.
199  1.98  0.  0.
200  1.99  0.  0.
201  2.00  0.  0.
202  2.01  0.  0.
203  2.02  0.  0.
204  2.03  0.  0.
205  2.04  0.  0.
206  2.05  0.  0.
207  2.06  0.  0.
208  2.07  0.  0.
209  2.08  0.  0.
210  2.09  0.  0.
211  2.10  0.  0.
212  2.11  0.  0.
213  2.12  0.  0.
214  2.13  0.  0.
215  2.14  0.  0.
216  2.15  0.  0.
217  2.16  0.  0.
218  2.17  0.  0.
219  2.18  0.  0.
220  2.19  0.  0.
221  2.20  0.  0.
222  2.21  0.  0.
223  2.22  0.  0.
224  2.23  0.  0.
225  2.24  0.  0.
226  2.25  0.  0.
227  2.26  0.  0.
228  2.27  0.  0.
229  2.28  0.  0.
230  2.29  0.  0.
231  2.30  0.  0.
232  2.31  0.  0.
233  2.32  0.  0.
234  2.33  0.  0.
235  2.34  0.  0.
236  2.35  0.  0.
237  2.36  0.  0.
238  2.37  0.  0.
239  2.38  0.  0.
240  2.39  0.  0.
241  2.40  0.  0.
242  2.41  0.  0.
243  2.42  0.  0.
244  2.43  0.  0.
245  2.44  0.  0.
246  2.45  0.  0.
247  2.46  0.  0.
248  2.47  0.  0.
249  2.48  0.  0.
250  2.49  0.  0.
251  2.50  0.  0.
252  2.51  0.  0.
253  2.52  0.  0.
254  2.53  0.  0.
255  2.54  0.  0.
256  2.55  0.  0.
257  2.56  0.  0.
258  2.57  0.  0.
259  2.58  0.  0.
260  2.59  0.  0.
261  2.60  0.  0.
262  2.61  0.  0.
263  2.62  0.  0.
264  2.63  0.  0.
265  2.64  0.  0.
266  2.65  0.  0.
267  2.66  0.  0.
268  2.67  0.  0.
269  2.68  0.  0.
270  2.69  0.  0.
271  2.70  0.  0.
272  2.71  0.  0.
273  2.72  0.  0.
274  2.73  0.  0.
275  2.74  0.  0.
276  2.75  0.  0.
277  2.76  0.  0.
278  2.77  0.  0.
279  2.78  0.  0.
280  2.79  0.  0.
281  2.80  0.  0.
282  2.81  0.  0.
283  2.82  0.  0.
284  2.83  0.  0.
285  2.84  0.  0.
286  2.85  0.  0.
287  2.86  0.  0.
288  2.87  0.  0.
289  2.88  0.  0.
290  2.89  0.  0.
291  2.90  0.  0.
292  2.91  0.  0.
293  2.92  0.  0.
294  2.93  0.  0.
295  2.94  0.  0.
296  2.95  0.  0.
297  2.96  0.  0.
298  2.97  0.  0.
299  2.98  0.  0.
300  2.99  0.  0.
301  3.00  0.  0.
302  3.01  0.  0.
303  3.02  0.  0.
304  3.03  0.  0.
305  3.04  0.  0.
306  3.05  0.  0.
307  3.06  0.  0.
308  3.07  0.  0.
309  3.08  0.  0.
310  3.09  0.  0.
311  3.10  0.  0.
312  3.11  0.  0.
313  3.12  0.  0.
314  3.13  0.  0.
315  3.14  0.  0.
316  3.15  0.  0.
317  3.16  0.  0.
318  3.17  0.  0.
319  3.18  0.  0.
320  3.19  0.  0.
321  3.20  0.  0.
322  3.21  0.  0.
323  3.22  0.  0.
324  3.23  0.  0.
325  3.24  0.  0.
326  3.25  0.  0.
327  3.26  0.  0.
328  3.27  0.  0.
329  3.28  0.  0.
330  3.29  0.  0.
331  3.30  0.  0.
332  3.31  0.  0.
333  3.32  0.  0.
334  3.33  0.  0.
335  3.34  0.  0.
336  3.35  0.  0.
337  3.36  0.  0.
338  3.37  0.  0.
339  3.38  0.  0.
340  3.39  0.  0.
341  3.40  0.  0.
342  3.41  0.  0.
343  3.42  0.  0.
344  3.43  0.  0.
345  3.44  0.  0.
346  3.45  0.  0.
347  3.46  0.  0.
348  3.47  0.  0.
349  3.48  0.  0.
350  3.49  0.  0.
351  3.50  0.  0.
352  3.51  0.  0.
353  3.52  0.  0.
354  3.53  0.  0.
355  3.54  0.  0.
356  3.55  0.  0.
357  3.56  0.  0.
358  3.57  0.  0.
359  3.58  0.  0.
360  3.59  0.  0.
361  3.60  0.  0.
362  3.61  0.  0.
363  3.62  0.  0.
364  3.63  0.  0.
365  3.64  0.  0.
366  3.65  0.  0.
367  3.66  0.  0.
368  3.67  0.  0.
369  3.68  0.  0.
370  3.69  0.  0.
371  3.70  0.  0.
372  3.71  0.  0.
373  3.72  0.  0.
374  3.73  0.  0.
375  3.74  0.  0.
376  3.75  0.  0.
377  3.76  0.  0.
378  3.77  0.  0.
379  3.78  0.  0.
380  3.79  0.  0.
381  3.80  0.  0.
382  3.81  0.  0.
383  3.82  0.  0.
384  3.83  0.  0.
385  3.84  0.  0.
386  3.85  0.  0.
387  3.86  0.  0.
388  3.87  0.  0.
389  3.88  0.  0.
390  3.89  0.  0.
391  3.90  0.  0.
392  3.91  0.  0.
393  3.92  0.  0.
394  3.93  0.  0.
395  3.94  0.  0.
396  3.95  0.  0.
397  3.96  0.  0.
398  3.97  0.  0.
399  3.98  0.  0.
400  3.99  0.  0.
401  4.00  0.  0.
402  4.01  0.  0.
403  4.02  0.  0.
404  4.03  0.  0.
405  4.04  0.  0.
406  4.05  0.  0.
407  4.06  0.  0.
408  4.07  0.  0.
409  4.08  0.  0.
410  4.09  0.  0.
411  4.10  0.  0.
412  4.11  0.  0.
413  4.12  0.  0.
414  4.13  0.  0.
415  4.14  0.  0.
416  4.15  0.  0.
417  4.16  0.  0.
418  4.17  0.  0.
419  4.18  0.  0.
420  4.19  0.  0.
421  4.20  0.  0.
422  4.21  0.  0.
423  4.22  0.  0.
424  4.23  0.  0.
425  4.24  0.  0.
426  4.25  0.  0.
427  4.26  0.  0.
428  4.27  0.  0.
429  4.28  0.  0.
430  4.29  0.  0.
431  4.30  0.  0.
432  4.31  0.  0.
433  4.32  0.  0.
434  4.33  0.  0.
435  4.34  0.  0.
436  4.35  0.  0.
437  4.36  0.  0.
438  4.37  0.  0.
439  4.38  0.  0.
440  4.39  0.  0.
441  4.40  0.  0.
442  4.41  0.  0.
443  4.42  0.  0.
444  4.43  0.  0.
445  4.44  0.  0.
446  4.45  0.  0.
447  4.46  0.  0.
448  4.47  0.  0.
449  4.48  0.  0.
450  4.49  0.  0.
451  4.50  0.  0.
452  4.51  0.  0.
453  4.52  0.  0.
454  4.53  0.  0.
455  4.54  0.  0.
456  4.55  0.  0.
457  4.56  0.  0.
458  4.57  0.  0.
459  4.58  0.  0.
460  4.59  0.  0.
461  4.60  0.  0.
462  4.61  0.  0.
463  4.62  0.  0.
464  4.63  0.  0.
465  4.64  0.  0.
466  4.65  0.  0.
467  4.66  0.  0.
468  4.67  0.  0.
469  4.68  0.  0.
470  4.69  0.  0.
471  4.70  0.  0.
472  4.71  0.  0.
473  4.72  0.  0.
474  4.73  0.  0.
475  4.74  0.  0.
476  4.75  0.  0.
477  4.76  0.  0.
478  4.77  0.  0.
479  4.78  0.  0.
480  4.79  0.  0.
481  4.80  0.  0.
482  4.81  0.  0.
483  4.82  0.  0.
484  4.83  0.  0.
485  4.84  0.  0.
486  4.85  0.  0.
487  4.86  0.  0.
488  4.87  0.  0.
489  4.88  0.  0.
490  4.89  0.  0.
491  4.90  0.  0.
492  4.91  0.  0.
493  4.92  0.  0.
494  4.93  0.  0.
495  4.94  0.  0.
496  4.95  0.  0.
497  4.96  0.  0.
498  4.97  0.  0.
499  4.98  0.  0.
500  4.99  0.  0.
501  5.00  0.  0.
502  5.01  0.  0.
503  5.02  0.  0.
504  5.03  0.  0.
505  5.04  0.  0.
506  5.05  0.  0.
507  5.06  0.  0.
508  5.07  0.  0.
509  5.08  0.  0.
510  5.09  0.  0.
511  5.10  0.  0.
512  5.11  0.  0.
513  5.12  0.  0.
514  5.13  0.  0.
515  5.14  0.  0.
516  5.15  0.  0.
517  5.16  0.  0.
518  5.17  0.  0.
519  5.18  0.  0.
520  5.19  0.  0.
521  5.20  0.  0.
522  5.21  0.  0.
523  5.22  0.  0.
524  5.23  0.  0.
525  5.24  0.  0.
526  5.25  0.  0.
527  5.26  0.  0.
528  5.27  0.  0.
529  5.28  0.  0.
530  5.29  0.  0.
531  5.30  0.  0.
532  5.31  0.  0.
533  5.32  0.  0.
534  5.33  0.  0.
535  5.34  0.  0.
536  5.35  0.  0.
537  5.36  0.  0.
538  5.37  0.  0.
539  5.38  0.  0.
540  5.39  0.  0.
541  5.40  0.  0.
542  5.41  0.  0.
543  5.42  0.  0.
544  5.43  0.  0.
545  5.44  0.  0.
546  5.45  0.  0.
547  5.46  0.  0.
548  5.47  0.  0.
549  5.48  0.  0.
550  5.49  0.  0.
551  5.50  0.  0.
552  5.51  0.  0.
553  5.52  0.  0.
554  5.53  0.  0.
555  5.54  0.  0.
556  5.55  0.  0.
557  5.56  0.  0.
558  5.57  0.  0.
559  5.58  0.  0.
560  5.59  0.  0.
561  5.60  0.  0.
562  5.61  0.  0.
563  5.62  0.  0.
564  5.63  0.  0.
565  5.64  0.  0.
566  5.65  0.  0.
567  5.66  0.  0.
568  5.67  0.  0.
569  5.68  0.  0.
570  5.69  0.  0.
571  5.70  0.  0.
572  5.71  0.  0.
573  5.72  0.  0.
574  5.73  0.  0.
575  5.74  0.  0.
576  5.75  0.  0.
577  5.76  0.  0.
578  5.77  0.  0.
579  5.78  0.  0.
580  5.79  0.  0.
581  5.80  0.  0.
582  5.81  0.  0.
583  5.82  0.  0.
584  5.83  0.  0.
585  5.84  0.  0.
586  5.85  0.  0.
587  5.86  0.  0.
588  5.87  0.  0.
589  5.88  0.  0.
590  5.89  0.  0.
591  5.90  0.  0.
592  5.91  0.  0.
593  5.92  0.  0.
594  5.93  0.  0.
595  5.94  0.  0.
596  5.95  0.  0.
597  5.96  0.  0.
598  5.97  0.  0.
599  5.98  0.  0.
600  5.99  0.  0.
1                         7.1690747641520E+00  8.4294976126307E-01
1  0.0000000000000E+00  4.8064908969581E-08  2.7700486751603E-08
2  1.0000000000000E-02  2.3846001205967E-03  1.0564165002637E-03
3  2.0000000000000E-02  9.4820514975778E-03  4.1960306275175E-03
4  3.0000000000000E-02  2.1124599626155E-02  9.3306626078762E-03
5  4.0000000000000E-02  3.7036932848495E-02  1.6315750539257E-02
6  5.0000000000000E-02  5.6842500327713E-02  2.4953898659868E-02
7  6.0000000000000E-02  8.0072157883714E-02  3.4999729639217E-02
8  7.0000000000000E-02  1.0617494762097E-01  4.6165928706771E-02
9  8.0000000000000E-02  1.3453076921338E-01  5.8130339732926E-02
10  9.0000000000000E-02  1.6446465796421E-01  7.0543948809051E-02
11  1.0000000000000E-01  1.9526234827250E-01  8.3039569991703E-02
12  1.1000000000000E-01  2.2618677171945E-01  9.5241031153089E-02
13  1.2000000000000E-01  2.5649511729342E-01  1.0677264569711E-01
14  1.3000000000000E-01  2.8545606778945E-01  1.1726874853949E-01
15  1.4000000000000E-01  3.1236682145739E-01  1.2638307238766E-01
16  1.5000000000000E-01  3.3656951165897E-01  1.3379774305632E-01
17  1.6000000000000E-01  3.5746664956490E-01  1.3923168027325E-01
18  1.7000000000000E-01  3.7453523553078E-01  1.4244820300885E-01
19  1.8000000000000E-01  3.8733921330445E-01  1.4326165553900E-01
20  1.9000000000000E-01  3.9553997703463E-01  1.4154289185625E-01
21  2.0000000000000E-01  3.9890468340875E-01  1.3722348121930E-01
22  2.1000000000000E-01  3.9731216923941E-01  1.3029852602883E-01
23  2.2000000000000E-01  3.9075632741371E-01  1.2082801422028E-01
24  2.3000000000000E-01  3.7934685018196E-01  1.0893666129371E-01
25  2.4000000000000E-01  3.6330730708086E-01  9.4812231233286E-02
26  2.5000000000000E-01  3.4297058409461E-01  7.8702360151884E-02
27  2.6000000000000E-01  3.1877176966420E-01  6.0909940763484E-02
28  2.7000000000000E-01  2.9123863057222E-01  4.1787158975641E-02
29  2.8000000000000E-01  2.6097987529703E-01  2.1728305263038E-02
30  2.9000000000000E-01  2.2867145294434E-01  1.1615123258239E-03
31  3.0000000000000E-01  1.9504118120613E-01 -1.9460403801647E-02
32  3.1000000000000E-01  1.6085203595345E-01 -3.9669800132651E-02
33  3.2000000000000E-01  1.2688446715861E-01 -5.8994543925038E-02
34  3.3000000000000E-01  9.3918130127376E-02 -7.6968601096271E-02
35  3.4000000000000E-01  6.2713436935828E-02 -9.3142638350175E-02
36  3.5000000000000E-01  3.3993340114964E-02 -1.0709439882173E-01
37  3.6000000000000E-01  8.4257588068841E-03 -1.1843861367799E-01
38  3.7000000000000E-01 -1.3392953185245E-02 -1.2683622004542E-01
39  3.8000000000000E-01 -3.0953117633473E-02 -1.3200266873284E-01
40  3.9000000000000E-01 -4.3845068620286E-02 -1.3371512323615E-01
41  4.0000000000000E-01 -5.1770399894448E-02 -1.3181837409116E-01
42  4.1000000000000E-01 -5.4550850028651E-02 -1.2622931932458E-01
43  4.2000000000000E-01 -5.2134601886538E-02 -1.1693989199075E-01
44  4.3000000000000E-01 -4.4599827477351E-02 -1.0401834894170E-01
45  4.4000000000000E-01 -3.2155367950117E-02 -8.7608870360188E-02
46  4.5000000000000E-01 -1.5138500020562E-02 -6.7929456436759E-02
47  4.6000000000000E-01  5.9901967717124E-03 -4.5268145102446E-02
48  4.7000000000000E-01  3.0654794256413E-02 -1.9977612126244E-02
49  4.8000000000000E-01  5.8174651376181E-02  7.5317486632127E-03
50  4.9000000000000E-01  8.7777531884291E-02  3.6800132570743E-02
51  5.0000000000000E-01  1.1861494848628E-01  6.7327853998076E-02
52  5.1000000000000E-01  1.4977942701047E-01  9.8585905590136E-02
53  5.2000000000000E-01  1.8032333942443E-01  1.3002732793189E-01
54  5.3000000000000E-01  2.0927891688749E-01  1.6109915059705E-01
55  5.4000000000000E-01  2.3567902440455E-01  1.9125464975091E-01
56  5.5000000000000E-01  2.5857825771791E-01  2.1996565726354E-01
57  5.6000000000000E-01  2.7707391135885E-01  2.4673465167348E-01
58  5.7000000000000E-01  2.9032636460320E-01  2.7110636251038E-01
59  5.8000000000000E-01  2.9757843956000E-01  2.9267862647551E-01
60  5.9000000000000E-01  2.9817330269048E-01  3.1111224670019E-01
61  6.0000000000000E-01  2.9157050742429E-01  3.2613962454273E-01
62  6.1000000000000E-01  2.7735981073043E-01  3.3757195681292E-01
63  6.2000000000000E-01  2.5527243984159E-01  3.4530481948272E-01
64  6.3000000000000E-01  2.2518953597464E-01  3.4932199130342E-01
65  6.4000000000000E-01  1.8714755883129E-01  3.4969740665781E-01
66  6.5000000000000E-01  1.4134049775164E-01  3.4659516570466E-01
67  6.6000000000000E-01  8.8118801366184E-02  3.4026757062877E-01
68  6.7000000000000E-01  2.7985006092684E-02  3.3105119874957E-01
69  6.8000000000000E-01 -3.8413886565890E-02  3.1936106548862E-01
70  6.9000000000000E-01 -1.1029716470531E-01  3.0568297185534E-01
71  7.0000000000000E-01 -1.8676410600668E-01  2.9056417129861E-01
72  7.1000000000000E-01 -2.6681037212786E-01  2.7460252861440E-01
73  7.2000000000000E-01 -3.4934678698871E-01  2.5843437827841E-01
74  7.3000000000000E-01 -4.3322013473490E-01  2.4272132031230E-01
75  7.4000000000000E-01 -5.1723556653951E-01  2.2813621790417E-01
76  7.5000000000000E-01 -6.0018016689781E-01  2.1534868188222E-01
77  7.6000000000000E-01 -6.8084720056991E-01  2.0501034228551E-01
78  7.7000000000000E-01 -7.5806054152413E-01  1.9774021630114E-01
79  7.8000000000000E-01 -8.3069877563779E-01  1.9411048448307E-01
80  7.9000000000000E-01 -8.9771846981631E-01  1.9463298329932E-01
81  8.0000000000000E-01 -9.5817611167681E-01  1.9974671167822E-01
82  8.1000000000000E-01 -1.0112482458714E+00  2.0980663247508E-01
83  8.2000000000000E-01 -1.0562493651404E+00  2.2507402693466E-01
84  8.3000000000000E-01 -1.0926471557248E+00  2.4570863167873E-01
85  8.4000000000000E-01 -1.1200747470536E+00  2.7176275403148E-01
86  8.5000000000000E-01 -1.1383396737086E+00  3.0317752324103E-01
87  8.6000000000000E-01 -1.1474293224229E+00  3.3978139310367E-01
88  8.7000000000000E-01 -1.1475127070244E+00  3.8129096647079E-01
89  8.8000000000000E-01 -1.1389384883927E+00  4.2731416501238E-01
90  8.9000000000000E-01 -1.1222292331721E+00  4.7735571937256E-01
91  9.0000000000000E-01 -1.0980719826204E+00  5.3082490646049E-01
92  9.1000000000000E-01 -1.0673052799789E+00  5.8704541307439E-01
93  9.2000000000000E-01 -1.0309028795527E+00  6.4526715933588E-01
94  9.3000000000000E-01 -9.8995443171855E-01  7.0467987248804E-01
95  9.4000000000000E-01 -9.4564350384389E-01  7.6442816239125E-01
96  9.5000000000000E-01 -8.9922335621032E-01  8.2362781538797E-01
97  9.6000000000000E-01 -8.5199094321153E-01  8.8138299386435E-01
98  9.7000000000000E-01 -8.0525965220453E-01  9.3680400548347E-01
99  9.8000000000000E-01 -7.6033132451193E-01  9.8902528924026E-01
100  9.9000000000000E-01 -7.1846812441694E-01  1.0372232556300E+00
101  1.0000000000000E+00 -6.8086483203690E-01  1.0806336156108E+00
102  1.0100000000000E+00 -6.4862213440022E-01  1.1185678378062E+00
103  1.0200000000000E+00 -6.2272147577652E-01  1.1504283855564E+00
104  1.0300000000000E+00 -6.0400200347992E-01  1.1757224048168E+00
105  1.0400000000000E+00 -5.9314010942345E-01  1.1940735601873E+00
106  1.0500000000000E+00 -5.9063202115756E-01  1.2052317491641E+00
107  1.0600000000000E+00 -5.9677983990441E-01  1.2090804633865E+00
108  1.0700000000000E+00 -6.1168135829430E-01  1.2056416094752E+00
109  1.0800000000000E+00 -6.3522391807495E-01  1.1950776503718E+00
110  1.0900000000000E+00 -6.6708248984606E-01  1.1776909796878E+00
111  1.1000000000000E+00 -7.0672207386089E-01  1.1539204957881E+00
112  1.1100000000000E+00 -7.5340443520644E-01  1.1243353978368E+00
113  1.1200000000000E+00 -8.0619909966367E-01  1.0896262818871E+00
114  1.1300000000000E+00 -8.6399845001483E-01  1.0505936701730E+00
115  1.1400000000000E+00 -9.2553667844993E-01  1.0081341598286E+00
116  1.1500000000000E+00 -9.8941227037025E-01  9.6322442746655E-01
117  1.1600000000000E+00 -1.0541136203890E+00  9.1690337207431E-01
118  1.1700000000000E+00 -1.1180473137940E+00  8.7025271984886E-01
119  1.1800000000000E+00 -1.1795685479222E+00  8.2437644979618E-01
120  1.1900000000000E+00 -1.2370131188802E+00  7.8037942751839E-01
121  1.2000000000000E+00 -1.2887303608879E+00  7.3934565595432E-01
122  1.2100000000000E+00 -1.3331163992521E+00  7.0231656533822E-01
123  1.2200000000000E+00 -1.3686470639941E+00  6.7026977004878E-01
124  1.2300000000000E+00 -1.3939098100473E+00  6.4409871706758E-01
125  1.2400000000000E+00 -1.4076340017237E+00  6.2459363944330E-01
126  1.2500000000000E+00 -1.4087189438791E+00  6.1242420850995E-01
127  1.2600000000000E+00 -1.3962590790736E+00  6.0812425122949E-01
128  1.2700000000000E+00 -1.3695658191718E+00  6.1207886381998E-01
129  1.2800000000000E+00 -1.3281855396500E+00  6.2451421094377E-01
130  1.2900000000000E+00 -1.2719133343923E+00  6.4549025180960E-01
131  1.3000000000000E+00 -1.2008022074756E+00  6.7489658093342E-01
132  1.3100000000000E+00 -1.1151674637591E+00  7.1245151376090E-01
133  1.3200000000000E+00 -1.0155861508118E+00  7.5770448666041E-01
134  1.3300000000000E+00 -9.0289149981409E-01  8.1004177762656E-01
135  1.3400000000000E+00 -7.7816240946080E-01  8.6869549043219E-01
136  1.3500000000000E+00 -6.4270811362052E-01  9.3275568154790E-01
137  1.3600000000000E+00 -4.9804826810133E-01  1.0011854475166E+00
138  1.3700000000000E+00 -3.4588878327081E-01  1.0728387313219E+00
139  1.3800000000000E+00 -1.8809381443487E-01  1.1464805517062E+00
140  1.3900000000000E+00 -2.6654400293132E-02  1.2208093089373E+00
141  1.4000000000000E+00  1.3634569104996E-01  1.2944807762539E+00
142  1.4100000000000E+00  2.9876628799159E-01  1.3661333097340E+00
143  1.4200000000000E+00  4.5844860661845E-01  1.4344130448619E+00
144  1.4300000000000E+00  6.1325371651892E-01  1.4979974596154E+00
145  1.4400000000000E+00  7.6110100574240E-01  1.5556186925237E+00
146  1.4500000000000E+00  9.0000592040148E-01  1.6060863604009E+00
147  1.4600000000000E+00  1.0281162441336E+00  1.6483092623448E+00
148  1.4700000000000E+00  1.1437462197649E+00  1.6813156787218E+00
149  1.4800000000000E+00  1.2454078544030E+00  1.7042719645484E+00
150  1.4900000000000E+00  1.3318388024391E+00  1.7164991541262E+00
151  1.5000000000000E+00  1.4020262859036E+00  1.7174873059244E+00
152  1.5100000000000E+00  1.4552265864251E+00  1.7069073272397E+00
153  1.5200000000000E+00  1.4909797260084E+00  1.6846200308372E+00