Al    ONCVPSP-4.0.1  r_core=   1.75068   1.75068   1.70928
13.0000      3.0000      241226    zatom,zion,pspd
8      11   2     4   600     0    pspcod,pspxc,lmax,lloc,mmax,r2well
5.99000000  5.00000000  0.00000000    rchrg fchrg qchrg
2     2     2     0     0    nproj
1     1           extension_switch
0                         4.9791078567594E+00  7.7622809599764E-01
1  0.0000000000000E+00  1.1080194609048E-08 -2.1293982493953E-08
2  1.0000000000000E-02  4.8506033492826E-03  3.1943304840535E-02
3  2.0000000000000E-02  1.0095064837516E-02  6.3149031591592E-02
4  3.0000000000000E-02  1.6119316634633E-02  9.2894486207742E-02
5  4.0000000000000E-02  2.3293591783139E-02  1.2048645189572E-01
6  5.0000000000000E-02  3.1964953755981E-02  1.4527520623548E-01
7  6.0000000000000E-02  4.2450272881016E-02  1.6666768802692E-01
8  7.0000000000000E-02  5.5029785284843E-02  1.8413955600878E-01
9  8.0000000000000E-02  6.9941358928632E-02  1.9724590288969E-01
10  9.0000000000000E-02  8.7375577854151E-02  2.0563041398263E-01
11  1.0000000000000E-01  1.0747174018244E-01  2.0903278965176E-01
12  1.1000000000000E-01  1.3031484800339E-01  2.0729428419899E-01
13  1.2000000000000E-01  1.5593364838940E-01  2.0036125010177E-01
14  1.3000000000000E-01  1.8429976471614E-01  1.8828661497582E-01
15  1.4000000000000E-01  2.1532793665596E-01  1.7122925854587E-01
16  1.5000000000000E-01  2.4887736601723E-01  1.4945129750501E-01
17  1.6000000000000E-01  2.8475414443527E-01  1.2331332665741E-01
18  1.7000000000000E-01  3.2271471817812E-01  9.3267704396677E-02
19  1.8000000000000E-01  3.6247032540495E-01  5.9850008617055E-02
20  1.9000000000000E-01  4.0369232248391E-01  2.3668824859045E-02
21  2.0000000000000E-01  4.4601829879548E-01 -1.4605938829560E-02
22  2.1000000000000E-01  4.8905886414401E-01 -5.4255986810002E-02
23  2.2000000000000E-01  5.3240497976574E-01 -9.4528572227098E-02
24  2.3000000000000E-01  5.7563569320869E-01 -1.3465116640613E-01
25  2.4000000000000E-01  6.1832612927574E-01 -1.7384657781028E-01
26  2.5000000000000E-01  6.6005558392379E-01 -2.1134822745935E-01
27  2.6000000000000E-01  7.0041556560710E-01 -2.4641528366027E-01
28  2.7000000000000E-01  7.3901762909205E-01 -2.7834736052867E-01
29  2.8000000000000E-01  7.7550085025178E-01 -3.0649849207552E-01
30  2.9000000000000E-01  8.0953879671414E-01 -3.3029010647092E-01
31  3.0000000000000E-01  8.4084585837256E-01 -3.4922274325379E-01
32  3.1000000000000E-01  8.6918281351224E-01 -3.6288627940317E-01
33  3.2000000000000E-01  8.9436152044081E-01 -3.7096845790259E-01
34  3.3000000000000E-01  9.1624864078253E-01 -3.7326154420362E-01
35  3.4000000000000E-01  9.3476831870060E-01 -3.6966697124065E-01
36  3.5000000000000E-01  9.4990375991636E-01 -3.6019787171114E-01
37  3.6000000000000E-01  9.6169767513520E-01 -3.4497943650357E-01
38  3.7000000000000E-01  9.7025157397937E-01 -3.2424707967700E-01
39  3.8000000000000E-01  9.7572391736707E-01 -2.9834243249113E-01
40  3.9000000000000E-01  9.7832715805574E-01 -2.6770723085849E-01
41  4.0000000000000E-01  9.7832372037729E-01 -2.3287520145078E-01
42  4.1000000000000E-01  9.7602099063019E-01 -1.9446209075797E-01
43  4.2000000000000E-01  9.7176540877363E-01 -1.5315401792971E-01
44  4.3000000000000E-01  9.6593576962580E-01 -1.0969436551758E-01
45  4.4000000000000E-01  9.5893585736669E-01 -6.4869451642870E-02
46  4.5000000000000E-01  9.5118655048523E-01 -1.9493252061416E-02
47  4.6000000000000E-01  9.4311754513167E-01  2.5608539407356E-02
48  4.7000000000000E-01  9.3515885292471E-01  6.9614808978916E-02
49  4.8000000000000E-01  9.2773223445637E-01  1.1172536743871E-01
50  4.9000000000000E-01  9.2124273192484E-01  1.5117702589866E-01
51  5.0000000000000E-01  9.1607046345163E-01  1.8725909038658E-01
52  5.1000000000000E-01  9.1256283770685E-01  2.1932797163562E-01
53  5.2000000000000E-01  9.1102734053263E-01  2.4682062099862E-01
54  5.3000000000000E-01  9.1172503543475E-01  2.6926652353092E-01
55  5.4000000000000E-01  9.1486490727551E-01  2.8629800462069E-01
56  5.5000000000000E-01  9.2059916346430E-01  2.9765863665783E-01
57  5.6000000000000E-01  9.2901958967591E-01  3.0320956658314E-01
58  5.7000000000000E-01  9.4015503793710E-01  3.0293362313615E-01
59  5.8000000000000E-01  9.5397010415791E-01  2.9693710353304E-01
60  5.9000000000000E-01  9.7036503022052E-01  2.8544918241411E-01
61  6.0000000000000E-01  9.8917684297919E-01  2.6881893040751E-01
62  6.1000000000000E-01  1.0101817193840E+00  2.4750997474926E-01
63  6.2000000000000E-01  1.0330985438499E+00  2.2209287923414E-01
64  6.3000000000000E-01  1.0575936013751E+00  1.9323536452059E-01
65  6.4000000000000E-01  1.0832863281927E+00  1.6169053164450E-01
66  6.5000000000000E-01  1.1097560213254E+00  1.2828329073031E-01
67  6.6000000000000E-01  1.1365493896843E+00  9.3895232568488E-02
68  6.7000000000000E-01  1.1631888126752E+00  5.9448212276428E-02
69  6.8000000000000E-01  1.1891811579602E+00  2.5886941056391E-02
70  6.9000000000000E-01  1.2140269983534E+00 -5.8390964211398E-03
71  7.0000000000000E-01  1.2372300590375E+00 -3.4794065683538E-02
72  7.1000000000000E-01  1.2583067205540E+00 -6.0074204104443E-02
73  7.2000000000000E-01  1.2767954004670E+00 -8.0825894004010E-02
74  7.3000000000000E-01  1.2922656372979E+00 -9.6263043599241E-02
75  7.4000000000000E-01  1.3043267042866E+00 -1.0568344151946E-01
76  7.5000000000000E-01  1.3126355876998E+00 -1.0848376618168E-01
77  7.6000000000000E-01  1.3169041746691E+00 -1.0417295293203E-01
78  7.7000000000000E-01  1.3169055087385E+00 -9.2383649146107E-02
79  7.8000000000000E-01  1.3124789872036E+00 -7.2881519994436E-02
80  7.9000000000000E-01  1.3035343926690E+00 -4.5572204759959E-02
81  8.0000000000000E-01  1.2900546717101E+00 -1.0505764802865E-02
82  8.1000000000000E-01  1.2720973957527E+00  3.2121491219373E-02
83  8.2000000000000E-01  1.2497948628678E+00  8.1967872236724E-02
84  8.3000000000000E-01  1.2233528237265E+00  1.3854987840354E-01
85  8.4000000000000E-01  1.1930478399983E+00  2.0124845261485E-01
86  8.5000000000000E-01  1.1592233085856E+00  2.6931782960012E-01
87  8.6000000000000E-01  1.1222842097866E+00  3.4189685385041E-01
88  8.7000000000000E-01  1.0826906613330E+00  4.1802259107239E-01
89  8.8000000000000E-01  1.0409503828098E+00  4.9664601403890E-01
90  8.9000000000000E-01  9.9761019582203E-01  5.7664950344120E-01
91  9.0000000000000E-01  9.5324670402555E-01  6.5686586839817E-01
92  9.1000000000000E-01  9.0845631344637E-01  7.3609856033876E-01
93  9.2000000000000E-01  8.6384476704905E-01  8.1314272863515E-01
94  9.3000000000000E-01  8.2001637802238E-01  8.8680674714639E-01
95  9.4000000000000E-01  7.7756315351622E-01  9.5593382812114E-01
96  9.5000000000000E-01  7.3705400442974E-01  1.0194233339999E+00
97  9.6000000000000E-01  6.9902423722516E-01  1.0762513987103E+00
98  9.7000000000000E-01  6.6396552059134E-01  1.1254904781051E+00
99  9.8000000000000E-01  6.3231651313226E-01  1.1663274641725E+00
100  9.9000000000000E-01  6.0445432820732E-01  1.1980800193380E+00
101  1.0000000000000E+00  5.8068699874717E-01  1.2202108152571E+00
102  1.0100000000000E+00  5.6124708854672E-01  1.2323393944845E+00
103  1.0200000000000E+00  5.4628657742813E-01  1.2342514128109E+00
104  1.0300000000000E+00  5.3587312612467E-01  1.2259050641624E+00
105  1.0400000000000E+00  5.2998780313138E-01  1.2074345380062E+00
106  1.0500000000000E+00  5.2852433045692E-01  1.1791504104750E+00
107  1.0600000000000E+00  5.3128987868919E-01  1.1415369239114E+00
108  1.0700000000000E+00  5.3800741451421E-01  1.0952461643163E+00
109  1.0800000000000E+00  5.4831957619698E-01  1.0410892014780E+00
110  1.0900000000000E+00  5.6179402519617E-01  9.8002431105089E-01
111  1.1000000000000E+00  5.7793019534116E-01  9.1314245095044E-01
112  1.1100000000000E+00  5.9616733548969E-01  8.4165021486569E-01
113  1.1200000000000E+00  6.1589371767050E-01  7.6685053273428E-01
114  1.1300000000000E+00  6.3645686086123E-01  6.9012143076843E-01
115  1.1400000000000E+00  6.5717460119284E-01  6.1289320120509E-01
116  1.1500000000000E+00  6.7734682279725E-01  5.3662436381026E-01
117  1.1600000000000E+00  6.9626765012281E-01  4.6277682652648E-01
118  1.1700000000000E+00  7.1323789251825E-01  3.9279067115089E-01
119  1.1800000000000E+00  7.2757752548228E-01  3.2805900109262E-01
120  1.1900000000000E+00  7.3863799030367E-01  2.6990329187945E-01
121  1.2000000000000E+00  7.4581409497511E-01  2.1954968098135E-01
122  1.2100000000000E+00  7.4855530420523E-01  1.7810662183099E-01
123  1.2200000000000E+00  7.4637621513219E-01  1.4654430752871E-01
124  1.2300000000000E+00  7.3886602765667E-01  1.2567624328928E-01
125  1.2400000000000E+00  7.2569683415186E-01  1.1614331322787E-01
126  1.2500000000000E+00  7.0663057234355E-01  1.1840064729374E-01
127  1.2600000000000E+00  6.8152450692886E-01  1.3270754897840E-01
128  1.2700000000000E+00  6.5033513002250E-01  1.5912069383889E-01
129  1.2800000000000E+00  6.1312039697338E-01  1.9749075455426E-01
130  1.2900000000000E+00  5.7004024217225E-01  2.4746255079827E-01
131  1.3000000000000E+00  5.2135534893870E-01  3.0847876213954E-01
132  1.3100000000000E+00  4.6742417750735E-01  3.7978718135838E-01
133  1.3200000000000E+00  4.0869828521181E-01  4.6045142462412E-01
134  1.3300000000000E+00  3.4571600285750E-01  5.4936495459127E-01
135  1.3400000000000E+00  2.7909456006562E-01  6.4526821448567E-01
136  1.3500000000000E+00  2.0952077984855E-01  7.4676861609009E-01
137  1.3600000000000E+00  1.3774048819135E-01  8.5236307350286E-01
138  1.3700000000000E+00  6.4546807705314E-02  9.6046272815848E-01
139  1.3800000000000E+00 -9.2324752367180E-03  1.0694194704510E+00
140  1.3900000000000E+00 -8.2748263156206E-02  1.1775538286231E+00
141  1.4000000000000E+00 -1.5514399931153E-01  1.2831837677943E+00
142  1.4100000000000E+00 -2.2556978755497E-01  1.3846538747941E+00
143  1.4200000000000E+00 -2.9319652237980E-01  1.4803634888789E+00
144  1.4300000000000E+00 -3.5722971446482E-01  1.5687918320673E+00
145  1.4400000000000E+00 -4.1692275191075E-01  1.6485218780469E+00
146  1.4500000000000E+00 -4.7158937165237E-01  1.7182627843023E+00
147  1.4600000000000E+00 -5.2061512174324E-01  1.7768702926495E+00
148  1.4700000000000E+00 -5.6346761949952E-01  1.8233649105567E+00
149  1.4800000000000E+00 -5.9970543657974E-01  1.8569476897046E+00
150  1.4900000000000E+00 -6.2898547053944E-01  1.8770134486194E+00
151  1.5000000000000E+00 -6.5106869186426E-01  1.8831613035365E+00
152  1.5100000000000E+00 -6.6582418476153E-01  1.8752023799349E+00
153  1.5200000000000E+00 -6.7323142836120E-01  1.8531645811353E+00
154  1.5300000000000E+00 -6.7338079199547E-01  1.8172942942622E+00
155  1.5400000000000E+00 -6.6647224364988E-01  1.7680549236354E+00
156  1.5500000000000E+00 -6.5281229488226E-01  1.7061221609742E+00
157  1.5600000000000E+00 -6.3280922872889E-01  1.6323759339196E+00
158  1.5700000000000E+00 -6.0696668048794E-01  1.5478890268344E+00
159  1.5800000000000E+00 -5.7587566111899E-01  1.4539123988252E+00
160  1.5900000000000E+00 -5.4020514442235E-01  1.3518573839296E+00
161  1.6000000000000E+00 -5.0069134382019E-01  1.2432748533831E+00
162  1.6100000000000E+00 -4.5812585116239E-01  1.1298317465636E+00
163  1.6200000000000E+00 -4.1334280808300E-01  1.0132852230127E+00
164  1.6300000000000E+00 -3.6720531340350E-01  8.9545489281571E-01
165  1.6400000000000E+00 -3.2059127997174E-01  7.7819358996957E-01
166  1.6500000000000E+00 -2.7437897864894E-01  6.6335721324792E-01
167  1.6600000000000E+00 -2.2943248023476E-01  5.5277413675591E-01
168  1.6700000000000E+00 -1.8658684235937E-01  4.4821446099539E-01
169  1.6800000000000E+00 -1.4663445222717E-01  3.5136105343207E-01
170  1.6900000000000E+00 -1.1031372443415E-01  2.6378274422912E-01
171  1.7000000000000E+00 -7.8294205822871E-02  1.8690477133930E-01
172  1.7100000000000E+00 -5.1165215800801E-02  1.2198449470075E-01
173  1.7200000000000E+00 -2.9426860478891E-02  7.0092299904206E-02
174  1.7300000000000E+00 -1.3474601692498E-02  3.2076744325232E-02
175  1.7400000000000E+00 -3.6067388986055E-03  8.5838253767822E-03
176  1.7500000000000E+00 -7.1787065457886E-05  1.7071749077217E-04
177  1.7600000000000E+00  4.0536216251066E-05 -9.6477586156279E-05
178  1.7700000000000E+00 -2.2592372092644E-05  5.3765059809964E-05
179  1.78  0. -0.
180  1.79  0. -0.
181  1.80  0.  0.
182  1.81  0.  0.
183  1.82  0.  0.
184  1.83  0.  0.
185  1.84  0.  0.
186  1.85  0.  0.
187  1.86  0.  0.
188  1.87  0.  0.
189  1.88  0.  0.
190  1.89  0.  0.
191  1.90  0.  0.
192  1.91  0.  0.
193  1.92  0.  0.
194  1.93  0.  0.
195  1.94  0.  0.
196  1.95  0.  0.
197  1.96  0.  0.
198  1.97  0.  0.
199  1.98  0.  0.
200  1.99  0.  0.
201  2.00  0.  0.
202  2.01  0.  0.
203  2.02  0.  0.
204  2.03  0.  0.
205  2.04  0.  0.
206  2.05  0.  0.
207  2.06  0.  0.
208  2.07  0.  0.
209  2.08  0.  0.
210  2.09  0.  0.
211  2.10  0.  0.
212  2.11  0.  0.
213  2.12  0.  0.
214  2.13  0.  0.
215  2.14  0.  0.
216  2.15  0.  0.
217  2.16  0.  0.
218  2.17  0.  0.
219  2.18  0.  0.
220  2.19  0.  0.
221  2.20  0.  0.
222  2.21  0.  0.
223  2.22  0.  0.
224  2.23  0.  0.
225  2.24  0.  0.
226  2.25  0.  0.
227  2.26  0.  0.
228  2.27  0.  0.
229  2.28  0.  0.
230  2.29  0.  0.
231  2.30  0.  0.
232  2.31  0.  0.
233  2.32  0.  0.
234  2.33  0.  0.
235  2.34  0.  0.
236  2.35  0.  0.
237  2.36  0.  0.
238  2.37  0.  0.
239  2.38  0.  0.
240  2.39  0.  0.
241  2.40  0.  0.
242  2.41  0.  0.
243  2.42  0.  0.
244  2.43  0.  0.
245  2.44  0.  0.
246  2.45  0.  0.
247  2.46  0.  0.
248  2.47  0.  0.
249  2.48  0.  0.
250  2.49  0.  0.
251  2.50  0.  0.
252  2.51  0.  0.
253  2.52  0.  0.
254  2.53  0.  0.
255  2.54  0.  0.
256  2.55  0.  0.
257  2.56  0.  0.
258  2.57  0.  0.
259  2.58  0.  0.
260  2.59  0.  0.
261  2.60  0.  0.
262  2.61  0.  0.
263  2.62  0.  0.
264  2.63  0.  0.
265  2.64  0.  0.
266  2.65  0.  0.
267  2.66  0.  0.
268  2.67  0.  0.
269  2.68  0.  0.
270  2.69  0.  0.
271  2.70  0.  0.
272  2.71  0.  0.
273  2.72  0.  0.
274  2.73  0.  0.
275  2.74  0.  0.
276  2.75  0.  0.
277  2.76  0.  0.
278  2.77  0.  0.
279  2.78  0.  0.
280  2.79  0.  0.
281  2.80  0.  0.
282  2.81  0.  0.
283  2.82  0.  0.
284  2.83  0.  0.
285  2.84  0.  0.
286  2.85  0.  0.
287  2.86  0.  0.
288  2.87  0.  0.
289  2.88  0.  0.
290  2.89  0.  0.
291  2.90  0.  0.
292  2.91  0.  0.
293  2.92  0.  0.
294  2.93  0.  0.
295  2.94  0.  0.
296  2.95  0.  0.
297  2.96  0.  0.
298  2.97  0.  0.
299  2.98  0.  0.
300  2.99  0.  0.
301  3.00  0.  0.
302  3.01  0.  0.
303  3.02  0.  0.
304  3.03  0.  0.
305  3.04  0.  0.
306  3.05  0.  0.
307  3.06  0.  0.
308  3.07  0.  0.
309  3.08  0.  0.
310  3.09  0.  0.
311  3.10  0.  0.
312  3.11  0.  0.
313  3.12  0.  0.
314  3.13  0.  0.
315  3.14  0.  0.
316  3.15  0.  0.
317  3.16  0.  0.
318  3.17  0.  0.
319  3.18  0.  0.
320  3.19  0.  0.
321  3.20  0.  0.
322  3.21  0.  0.
323  3.22  0.  0.
324  3.23  0.  0.
325  3.24  0.  0.
326  3.25  0.  0.
327  3.26  0.  0.
328  3.27  0.  0.
329  3.28  0.  0.
330  3.29  0.  0.
331  3.30  0.  0.
332  3.31  0.  0.
333  3.32  0.  0.
334  3.33  0.  0.
335  3.34  0.  0.
336  3.35  0.  0.
337  3.36  0.  0.
338  3.37  0.  0.
339  3.38  0.  0.
340  3.39  0.  0.
341  3.40  0.  0.
342  3.41  0.  0.
343  3.42  0.  0.
344  3.43  0.  0.
345  3.44  0.  0.
346  3.45  0.  0.
347  3.46  0.  0.
348  3.47  0.  0.
349  3.48  0.  0.
350  3.49  0.  0.
351  3.50  0.  0.
352  3.51  0.  0.
353  3.52  0.  0.
354  3.53  0.  0.
355  3.54  0.  0.
356  3.55  0.  0.
357  3.56  0.  0.
358  3.57  0.  0.
359  3.58  0.  0.
360  3.59  0.  0.
361  3.60  0.  0.
362  3.61  0.  0.
363  3.62  0.  0.
364  3.63  0.  0.
365  3.64  0.  0.
366  3.65  0.  0.
367  3.66  0.  0.
368  3.67  0.  0.
369  3.68  0.  0.
370  3.69  0.  0.
371  3.70  0.  0.
372  3.71  0.  0.
373  3.72  0.  0.
374  3.73  0.  0.
375  3.74  0.  0.
376  3.75  0.  0.
377  3.76  0.  0.
378  3.77  0.  0.
379  3.78  0.  0.
380  3.79  0.  0.
381  3.80  0.  0.
382  3.81  0.  0.
383  3.82  0.  0.
384  3.83  0.  0.
385  3.84  0.  0.
386  3.85  0.  0.
387  3.86  0.  0.
388  3.87  0.  0.
389  3.88  0.  0.
390  3.89  0.  0.
391  3.90  0.  0.
392  3.91  0.  0.
393  3.92  0.  0.
394  3.93  0.  0.
395  3.94  0.  0.
396  3.95  0.  0.
397  3.96  0.  0.
398  3.97  0.  0.
399  3.98  0.  0.
400  3.99  0.  0.
401  4.00  0.  0.
402  4.01  0.  0.
403  4.02  0.  0.
404  4.03  0.  0.
405  4.04  0.  0.
406  4.05  0.  0.
407  4.06  0.  0.
408  4.07  0.  0.
409  4.08  0.  0.
410  4.09  0.  0.
411  4.10  0.  0.
412  4.11  0.  0.
413  4.12  0.  0.
414  4.13  0.  0.
415  4.14  0.  0.
416  4.15  0.  0.
417  4.16  0.  0.
418  4.17  0.  0.
419  4.18  0.  0.
420  4.19  0.  0.
421  4.20  0.  0.
422  4.21  0.  0.
423  4.22  0.  0.
424  4.23  0.  0.
425  4.24  0.  0.
426  4.25  0.  0.
427  4.26  0.  0.
428  4.27  0.  0.
429  4.28  0.  0.
430  4.29  0.  0.
431  4.30  0.  0.
432  4.31  0.  0.
433  4.32  0.  0.
434  4.33  0.  0.
435  4.34  0.  0.
436  4.35  0.  0.
437  4.36  0.  0.
438  4.37  0.  0.
439  4.38  0.  0.
440  4.39  0.  0.
441  4.40  0.  0.
442  4.41  0.  0.
443  4.42  0.  0.
444  4.43  0.  0.
445  4.44  0.  0.
446  4.45  0.  0.
447  4.46  0.  0.
448  4.47  0.  0.
449  4.48  0.  0.
450  4.49  0.  0.
451  4.50  0.  0.
452  4.51  0.  0.
453  4.52  0.  0.
454  4.53  0.  0.
455  4.54  0.  0.
456  4.55  0.  0.
457  4.56  0.  0.
458  4.57  0.  0.
459  4.58  0.  0.
460  4.59  0.  0.
461  4.60  0.  0.
462  4.61  0.  0.
463  4.62  0.  0.
464  4.63  0.  0.
465  4.64  0.  0.
466  4.65  0.  0.
467  4.66  0.  0.
468  4.67  0.  0.
469  4.68  0.  0.
470  4.69  0.  0.
471  4.70  0.  0.
472  4.71  0.  0.
473  4.72  0.  0.
474  4.73  0.  0.
475  4.74  0.  0.
476  4.75  0.  0.
477  4.76  0.  0.
478  4.77  0.  0.
479  4.78  0.  0.
480  4.79  0.  0.
481  4.80  0.  0.
482  4.81  0.  0.
483  4.82  0.  0.
484  4.83  0.  0.
485  4.84  0.  0.
486  4.85  0.  0.
487  4.86  0.  0.
488  4.87  0.  0.
489  4.88  0.  0.
490  4.89  0.  0.
491  4.90  0.  0.
492  4.91  0.  0.
493  4.92  0.  0.
494  4.93  0.  0.
495  4.94  0.  0.
496  4.95  0.  0.
497  4.96  0.  0.
498  4.97  0.  0.
499  4.98  0.  0.
500  4.99  0.  0.
501  5.00  0.  0.
502  5.01  0.  0.
503  5.02  0.  0.
504  5.03  0.  0.
505  5.04  0.  0.
506  5.05  0.  0.
507  5.06  0.  0.
508  5.07  0.  0.
509  5.08  0.  0.
510  5.09  0.  0.
511  5.10  0.  0.
512  5.11  0.  0.
513  5.12  0.  0.
514  5.13  0.  0.
515  5.14  0.  0.
516  5.15  0.  0.
517  5.16  0.  0.
518  5.17  0.  0.
519  5.18  0.  0.
520  5.19  0.  0.
521  5.20  0.  0.
522  5.21  0.  0.
523  5.22  0.  0.
524  5.23  0.  0.
525  5.24  0.  0.
526  5.25  0.  0.
527  5.26  0.  0.
528  5.27  0.  0.
529  5.28  0.  0.
530  5.29  0.  0.
531  5.30  0.  0.
532  5.31  0.  0.
533  5.32  0.  0.
534  5.33  0.  0.
535  5.34  0.  0.
536  5.35  0.  0.
537  5.36  0.  0.
538  5.37  0.  0.
539  5.38  0.  0.
540  5.39  0.  0.
541  5.40  0.  0.
542  5.41  0.  0.
543  5.42  0.  0.
544  5.43  0.  0.
545  5.44  0.  0.
546  5.45  0.  0.
547  5.46  0.  0.
548  5.47  0.  0.
549  5.48  0.  0.
550  5.49  0.  0.
551  5.50  0.  0.
552  5.51  0.  0.
553  5.52  0.  0.
554  5.53  0.  0.
555  5.54  0.  0.
556  5.55  0.  0.
557  5.56  0.  0.
558  5.57  0.  0.
559  5.58  0.  0.
560  5.59  0.  0.
561  5.60  0.  0.
562  5.61  0.  0.
563  5.62  0.  0.
564  5.63  0.  0.
565  5.64  0.  0.
566  5.65  0.  0.
567  5.66  0.  0.
568  5.67  0.  0.
569  5.68  0.  0.
570  5.69  0.  0.
571  5.70  0.  0.
572  5.71  0.  0.
573  5.72  0.  0.
574  5.73  0.  0.
575  5.74  0.  0.
576  5.75  0.  0.
577  5.76  0.  0.
578  5.77  0.  0.
579  5.78  0.  0.
580  5.79  0.  0.
581  5.80  0.  0.
582  5.81  0.  0.
583  5.82  0.  0.
584  5.83  0.  0.
585  5.84  0.  0.
586  5.85  0.  0.
587  5.86  0.  0.
588  5.87  0.  0.
589  5.88  0.  0.
590  5.89  0.  0.
591  5.90  0.  0.
592  5.91  0.  0.
593  5.92  0.  0.
594  5.93  0.  0.
595  5.94  0.  0.
596  5.95  0.  0.
597  5.96  0.  0.
598  5.97  0.  0.
599  5.98  0.  0.
600  5.99  0.  0.
1                         7.1690747641520E+00  8.4294976126307E-01
1  0.0000000000000E+00  4.8064908969581E-08  2.7700486751603E-08
2  1.0000000000000E-02  2.3846001205967E-03  1.0564165002637E-03
3  2.0000000000000E-02  9.4820514975778E-03  4.1960306275175E-03
4  3.0000000000000E-02  2.1124599626155E-02  9.3306626078762E-03
5  4.0000000000000E-02  3.7036932848495E-02  1.6315750539257E-02
6  5.0000000000000E-02  5.6842500327713E-02  2.4953898659868E-02
7  6.0000000000000E-02  8.0072157883714E-02  3.4999729639217E-02
8  7.0000000000000E-02  1.0617494762097E-01  4.6165928706771E-02
9  8.0000000000000E-02  1.3453076921338E-01  5.8130339732926E-02
10  9.0000000000000E-02  1.6446465796421E-01  7.0543948809051E-02
11  1.0000000000000E-01  1.9526234827250E-01  8.3039569991703E-02
12  1.1000000000000E-01  2.2618677171945E-01  9.5241031153089E-02
13  1.2000000000000E-01  2.5649511729342E-01  1.0677264569711E-01
14  1.3000000000000E-01  2.8545606778945E-01  1.1726874853949E-01
15  1.4000000000000E-01  3.1236682145739E-01  1.2638307238766E-01
16  1.5000000000000E-01  3.3656951165897E-01  1.3379774305632E-01
17  1.6000000000000E-01  3.5746664956490E-01  1.3923168027325E-01
18  1.7000000000000E-01  3.7453523553078E-01  1.4244820300885E-01
19  1.8000000000000E-01  3.8733921330445E-01  1.4326165553900E-01
20  1.9000000000000E-01  3.9553997703463E-01  1.4154289185625E-01
21  2.0000000000000E-01  3.9890468340875E-01  1.3722348121930E-01
22  2.1000000000000E-01  3.9731216923941E-01  1.3029852602883E-01
23  2.2000000000000E-01  3.9075632741371E-01  1.2082801422028E-01
24  2.3000000000000E-01  3.7934685018196E-01  1.0893666129371E-01
25  2.4000000000000E-01  3.6330730708086E-01  9.4812231233286E-02
26  2.5000000000000E-01  3.4297058409461E-01  7.8702360151884E-02
27  2.6000000000000E-01  3.1877176966420E-01  6.0909940763484E-02
28  2.7000000000000E-01  2.9123863057222E-01  4.1787158975641E-02
29  2.8000000000000E-01  2.6097987529703E-01  2.1728305263038E-02
30  2.9000000000000E-01  2.2867145294434E-01  1.1615123258239E-03
31  3.0000000000000E-01  1.9504118120613E-01 -1.9460403801647E-02
32  3.1000000000000E-01  1.6085203595345E-01 -3.9669800132651E-02
33  3.2000000000000E-01  1.2688446715861E-01 -5.8994543925038E-02
34  3.3000000000000E-01  9.3918130127376E-02 -7.6968601096271E-02
35  3.4000000000000E-01  6.2713436935828E-02 -9.3142638350175E-02
36  3.5000000000000E-01  3.3993340114964E-02 -1.0709439882173E-01
37  3.6000000000000E-01  8.4257588068841E-03 -1.1843861367799E-01
38  3.7000000000000E-01 -1.3392953185245E-02 -1.2683622004542E-01
39  3.8000000000000E-01 -3.0953117633473E-02 -1.3200266873284E-01
40  3.9000000000000E-01 -4.3845068620286E-02 -1.3371512323615E-01
41  4.0000000000000E-01 -5.1770399894448E-02 -1.3181837409116E-01
42  4.1000000000000E-01 -5.4550850028651E-02 -1.2622931932458E-01
43  4.2000000000000E-01 -5.2134601886538E-02 -1.1693989199075E-01
44  4.3000000000000E-01 -4.4599827477351E-02 -1.0401834894170E-01
45  4.4000000000000E-01 -3.2155367950117E-02 -8.7608870360188E-02
46  4.5000000000000E-01 -1.5138500020562E-02 -6.7929456436759E-02
47  4.6000000000000E-01  5.9901967717124E-03 -4.5268145102446E-02
48  4.7000000000000E-01  3.0654794256413E-02 -1.9977612126244E-02
49  4.8000000000000E-01  5.8174651376181E-02  7.5317486632127E-03
50  4.9000000000000E-01  8.7777531884291E-02  3.6800132570743E-02
51  5.0000000000000E-01  1.1861494848628E-01  6.7327853998076E-02
52  5.1000000000000E-01  1.4977942701047E-01  9.8585905590136E-02
53  5.2000000000000E-01  1.8032333942443E-01  1.3002732793189E-01
54  5.3000000000000E-01  2.0927891688749E-01  1.6109915059705E-01
55  5.4000000000000E-01  2.3567902440455E-01  1.9125464975091E-01
56  5.5000000000000E-01  2.5857825771791E-01  2.1996565726354E-01
57  5.6000000000000E-01  2.7707391135885E-01  2.4673465167348E-01
58  5.7000000000000E-01  2.9032636460320E-01  2.7110636251038E-01
59  5.8000000000000E-01  2.9757843956000E-01  2.9267862647551E-01
60  5.9000000000000E-01  2.9817330269048E-01  3.1111224670019E-01
61  6.0000000000000E-01  2.9157050742429E-01  3.2613962454273E-01
62  6.1000000000000E-01  2.7735981073043E-01  3.3757195681292E-01
63  6.2000000000000E-01  2.5527243984159E-01  3.4530481948272E-01
64  6.3000000000000E-01  2.2518953597464E-01  3.4932199130342E-01
65  6.4000000000000E-01  1.8714755883129E-01  3.4969740665781E-01
66  6.5000000000000E-01  1.4134049775164E-01  3.4659516570466E-01
67  6.6000000000000E-01  8.8118801366184E-02  3.4026757062877E-01
68  6.7000000000000E-01  2.7985006092684E-02  3.3105119874957E-01
69  6.8000000000000E-01 -3.8413886565890E-02  3.1936106548862E-01
70  6.9000000000000E-01 -1.1029716470531E-01  3.0568297185534E-01
71  7.0000000000000E-01 -1.8676410600668E-01  2.9056417129861E-01
72  7.1000000000000E-01 -2.6681037212786E-01  2.7460252861440E-01
73  7.2000000000000E-01 -3.4934678698871E-01  2.5843437827841E-01
74  7.3000000000000E-01 -4.3322013473490E-01  2.4272132031230E-01
75  7.4000000000000E-01 -5.1723556653951E-01  2.2813621790417E-01
76  7.5000000000000E-01 -6.0018016689781E-01  2.1534868188222E-01
77  7.6000000000000E-01 -6.8084720056991E-01  2.0501034228551E-01
78  7.7000000000000E-01 -7.5806054152413E-01  1.9774021630114E-01
79  7.8000000000000E-01 -8.3069877563779E-01  1.9411048448307E-01
80  7.9000000000000E-01 -8.9771846981631E-01  1.9463298329932E-01
81  8.0000000000000E-01 -9.5817611167681E-01  1.9974671167822E-01
82  8.1000000000000E-01 -1.0112482458714E+00  2.0980663247508E-01
83  8.2000000000000E-01 -1.0562493651404E+00  2.2507402693466E-01
84  8.3000000000000E-01 -1.0926471557248E+00  2.4570863167873E-01
85  8.4000000000000E-01 -1.1200747470536E+00  2.7176275403148E-01
86  8.5000000000000E-01 -1.1383396737086E+00  3.0317752324103E-01
87  8.6000000000000E-01 -1.1474293224229E+00  3.3978139310367E-01
88  8.7000000000000E-01 -1.1475127070244E+00  3.8129096647079E-01
89  8.8000000000000E-01 -1.1389384883927E+00  4.2731416501238E-01
90  8.9000000000000E-01 -1.1222292331721E+00  4.7735571937256E-01
91  9.0000000000000E-01 -1.0980719826204E+00  5.3082490646049E-01
92  9.1000000000000E-01 -1.0673052799789E+00  5.8704541307439E-01
93  9.2000000000000E-01 -1.0309028795527E+00  6.4526715933588E-01
94  9.3000000000000E-01 -9.8995443171855E-01  7.0467987248804E-01
95  9.4000000000000E-01 -9.4564350384389E-01  7.6442816239125E-01
96  9.5000000000000E-01 -8.9922335621032E-01  8.2362781538797E-01
97  9.6000000000000E-01 -8.5199094321153E-01  8.8138299386435E-01
98  9.7000000000000E-01 -8.0525965220453E-01  9.3680400548347E-01
99  9.8000000000000E-01 -7.6033132451193E-01  9.8902528924026E-01
100  9.9000000000000E-01 -7.1846812441694E-01  1.0372232556300E+00
101  1.0000000000000E+00 -6.8086483203690E-01  1.0806336156108E+00
102  1.0100000000000E+00 -6.4862213440022E-01  1.1185678378062E+00
103  1.0200000000000E+00 -6.2272147577652E-01  1.1504283855564E+00
104  1.0300000000000E+00 -6.0400200347992E-01  1.1757224048168E+00
105  1.0400000000000E+00 -5.9314010942345E-01  1.1940735601873E+00
106  1.0500000000000E+00 -5.9063202115756E-01  1.2052317491641E+00
107  1.0600000000000E+00 -5.9677983990441E-01  1.2090804633865E+00
108  1.0700000000000E+00 -6.1168135829430E-01  1.2056416094752E+00
109  1.0800000000000E+00 -6.3522391807495E-01  1.1950776503718E+00
110  1.0900000000000E+00 -6.6708248984606E-01  1.1776909796878E+00
111  1.1000000000000E+00 -7.0672207386089E-01  1.1539204957881E+00
112  1.1100000000000E+00 -7.5340443520644E-01  1.1243353978368E+00
113  1.1200000000000E+00 -8.0619909966367E-01  1.0896262818871E+00
114  1.1300000000000E+00 -8.6399845001483E-01  1.0505936701730E+00
115  1.1400000000000E+00 -9.2553667844993E-01  1.0081341598286E+00
116  1.1500000000000E+00 -9.8941227037025E-01  9.6322442746655E-01
117  1.1600000000000E+00 -1.0541136203890E+00  9.1690337207431E-01
118  1.1700000000000E+00 -1.1180473137940E+00  8.7025271984886E-01
119  1.1800000000000E+00 -1.1795685479222E+00  8.2437644979618E-01
120  1.1900000000000E+00 -1.2370131188802E+00  7.8037942751839E-01
121  1.2000000000000E+00 -1.2887303608879E+00  7.3934565595432E-01
122  1.2100000000000E+00 -1.3331163992521E+00  7.0231656533822E-01
123  1.2200000000000E+00 -1.3686470639941E+00  6.7026977004878E-01
124  1.2300000000000E+00 -1.3939098100473E+00  6.4409871706758E-01
125  1.2400000000000E+00 -1.4076340017237E+00  6.2459363944330E-01
126  1.2500000000000E+00 -1.4087189438791E+00  6.1242420850995E-01
127  1.2600000000000E+00 -1.3962590790736E+00  6.0812425122949E-01
128  1.2700000000000E+00 -1.3695658191718E+00  6.1207886381998E-01
129  1.2800000000000E+00 -1.3281855396500E+00  6.2451421094377E-01
130  1.2900000000000E+00 -1.2719133343923E+00  6.4549025180960E-01
131  1.3000000000000E+00 -1.2008022074756E+00  6.7489658093342E-01
132  1.3100000000000E+00 -1.1151674637591E+00  7.1245151376090E-01
133  1.3200000000000E+00 -1.0155861508118E+00  7.5770448666041E-01
134  1.3300000000000E+00 -9.0289149981409E-01  8.1004177762656E-01
135  1.3400000000000E+00 -7.7816240946080E-01  8.6869549043219E-01
136  1.3500000000000E+00 -6.4270811362052E-01  9.3275568154790E-01
137  1.3600000000000E+00 -4.9804826810133E-01  1.0011854475166E+00
138  1.3700000000000E+00 -3.4588878327081E-01  1.0728387313219E+00
139  1.3800000000000E+00 -1.8809381443487E-01  1.1464805517062E+00
140  1.3900000000000E+00 -2.6654400293132E-02  1.2208093089373E+00
141  1.4000000000000E+00  1.3634569104996E-01  1.2944807762539E+00
142  1.4100000000000E+00  2.9876628799159E-01  1.3661333097340E+00
143  1.4200000000000E+00  4.5844860661845E-01  1.4344130448619E+00
144  1.4300000000000E+00  6.1325371651892E-01  1.4979974596154E+00
145  1.4400000000000E+00  7.6110100574240E-01  1.5556186925237E+00
146  1.4500000000000E+00  9.0000592040148E-01  1.6060863604009E+00
147  1.4600000000000E+00  1.0281162441336E+00  1.6483092623448E+00
148  1.4700000000000E+00  1.1437462197649E+00  1.6813156787218E+00
149  1.4800000000000E+00  1.2454078544030E+00  1.7042719645484E+00
150  1.4900000000000E+00  1.3318388024391E+00  1.7164991541262E+00
151  1.5000000000000E+00  1.4020262859036E+00  1.7174873059244E+00
152  1.5100000000000E+00  1.4552265864251E+00  1.7069073272397E+00
153  1.5200000000000E+00  1.4909797260084E+00  1.6846200308372E+00