Eu    ONCVPSP-4.0.1  r_core=   2.01108   1.60216   1.90567   1.60216
63.0000     17.0000      250626    zatom,zion,pspd
8      11   3     4   600     0    pspcod,pspxc,lmax,lloc,mmax,r2well
5.99000000 16.70000000  0.00000000    rchrg fchrg qchrg
2     2     2     2     0    nproj
1     1           extension_switch
0                         6.7843014382738E+00  5.2554338014396E-01
1  0.0000000000000E+00  8.4758255969319E-11 -3.5425129843447E-10
2  1.0000000000000E-02  4.0559066990269E-02 -3.0413422276111E-03
3  2.0000000000000E-02  8.1098585315528E-02 -6.1284151395368E-03
4  3.0000000000000E-02  1.2159882091568E-01 -9.3061829616541E-03
5  4.0000000000000E-02  1.6203967115732E-01 -1.2618085676227E-02
6  5.0000000000000E-02  2.0240048606754E-01 -1.6105298492546E-02
7  6.0000000000000E-02  2.4265989613174E-01 -1.9806016975218E-02
8  7.0000000000000E-02  2.8279564874325E-01 -2.3754775963391E-02
9  8.0000000000000E-02  3.2278445530765E-01 -2.7981810059955E-02
10  9.0000000000000E-02  3.6260185090059E-01 -3.2512463034039E-02
11  1.0000000000000E-01  4.0222206825452E-01 -3.7366652966390E-02
12  1.1000000000000E-01  4.4161792770937E-01 -4.2558399381700E-02
13  1.2000000000000E-01  4.8076074460538E-01 -4.8095417959206E-02
14  1.3000000000000E-01  5.1962025542481E-01 -5.3978787700734E-02
15  1.4000000000000E-01  5.5816456380474E-01 -6.0202694669935E-02
16  1.5000000000000E-01  5.9636010734732E-01 -6.6754255606033E-02
17  1.6000000000000E-01  6.3417164594865E-01 -7.3613423867888E-02
18  1.7000000000000E-01  6.7156227215442E-01 -8.0752979288121E-02
19  1.8000000000000E-01  7.0849344383254E-01 -8.8138602621683E-02
20  1.9000000000000E-01  7.4492503923113E-01 -9.5729034366837E-02
21  2.0000000000000E-01  7.8081543426760E-01 -1.0347631682951E-01
22  2.1000000000000E-01  8.1612160167229E-01 -1.1132611740225E-01
23  2.2000000000000E-01  8.5079923139158E-01 -1.1921813014737E-01
24  2.3000000000000E-01  8.8480287144140E-01 -1.2708655191772E-01
25  2.4000000000000E-01  9.1808608819541E-01 -1.3486062842846E-01
26  2.5000000000000E-01  9.5060164489516E-01 -1.4246526491659E-01
27  2.6000000000000E-01  9.8230169698280E-01 -1.4982169530034E-01
28  2.7000000000000E-01  1.0131380026842E+00 -1.5684820308602E-01
29  2.8000000000000E-01  1.0430621471116E+00 -1.6346088667231E-01
30  2.9000000000000E-01  1.0720257780121E+00 -1.6957446117732E-01
31  3.0000000000000E-01  1.0999808511650E+00 -1.7510308846916E-01
32  3.1000000000000E-01  1.1268798833230E+00 -1.7996122671995E-01
33  3.2000000000000E-01  1.1526762105092E+00 -1.8406449053134E-01
34  3.3000000000000E-01  1.1773242494142E+00 -1.8733051249955E-01
35  3.4000000000000E-01  1.2007797595965E+00 -1.8967979700234E-01
36  3.5000000000000E-01  1.2230001041656E+00 -1.9103655700085E-01
37  3.6000000000000E-01  1.2439445066312E+00 -1.9132952475641E-01
38  3.7000000000000E-01  1.2635743016214E+00 -1.9049272756502E-01
39  3.8000000000000E-01  1.2818531772209E+00 -1.8846621991077E-01
40  3.9000000000000E-01  1.2987474067464E+00 -1.8519676382932E-01
41  4.0000000000000E-01  1.3142260678639E+00 -1.8063844975165E-01
42  4.1000000000000E-01  1.3282612470622E+00 -1.7475325066315E-01
43  4.2000000000000E-01  1.3408282276235E+00 -1.6751150305559E-01
44  4.3000000000000E-01  1.3519056593805E+00 -1.5889230886813E-01
45  4.4000000000000E-01  1.3614757087076E+00 -1.4888385339598E-01
46  4.5000000000000E-01  1.3695241873770E+00 -1.3748363498978E-01
47  4.6000000000000E-01  1.3760406590963E+00 -1.2469860326163E-01
48  4.7000000000000E-01  1.3810185227525E+00 -1.1054520345035E-01
49  4.8000000000000E-01  1.3844550715936E+00 -9.5049325566954E-02
50  4.9000000000000E-01  1.3863515278049E+00 -7.8246157932634E-02
51  5.0000000000000E-01  1.3867130521576E+00 -6.0179945726150E-02
52  5.1000000000000E-01  1.3855487286368E+00 -4.0903656163690E-02
53  5.2000000000000E-01  1.3828715241875E+00 -2.0478552933222E-02
54  5.3000000000000E-01  1.3786982239406E+00  1.0263165147687E-03
55  5.4000000000000E-01  1.3730493425084E+00  2.3534716267254E-02
56  5.5000000000000E-01  1.3659490121546E+00  4.6963894374322E-02
57  5.6000000000000E-01  1.3574248488543E+00  7.1225326071938E-02
58  5.7000000000000E-01  1.3475077974605E+00  9.6225520669436E-02
59  5.8000000000000E-01  1.3362319573773E+00  1.2186688423074E-01
60  5.9000000000000E-01  1.3236343903171E+00  1.4804862951711E-01
61  6.0000000000000E-01  1.3097549118723E+00  1.7466772407992E-01
62  6.1000000000000E-01  1.2946358687759E+00  2.0161986690304E-01
63  6.2000000000000E-01  1.2783219038423E+00  2.2880048360108E-01
64  6.3000000000000E-01  1.2608597106832E+00  2.5610572988674E-01
65  6.4000000000000E-01  1.2422977803717E+00  2.8343349283237E-01
66  6.5000000000000E-01  1.2226861422867E+00  3.1068437936996E-01
67  6.6000000000000E-01  1.2020761014049E+00  3.3776268150092E-01
68  6.7000000000000E-01  1.1805199743202E+00  3.6457730782548E-01
69  6.8000000000000E-01  1.1580708262618E+00  3.9104267124665E-01
70  6.9000000000000E-01  1.1347822113493E+00  4.1707952305753E-01
71  7.0000000000000E-01  1.1107079182690E+00  4.4261572407814E-01
72  7.1000000000000E-01  1.0859017234799E+00  4.6758694406492E-01
73  7.2000000000000E-01  1.0604171539632E+00  4.9193728126898E-01
74  7.3000000000000E-01  1.0343072614100E+00  5.1561979475911E-01
75  7.4000000000000E-01  1.0076244096144E+00  5.3859694294903E-01
76  7.5000000000000E-01  9.8042007668193E-01  5.6084092266268E-01
77  7.6000000000000E-01  9.5274467350525E-01  5.8233390403260E-01
78  7.7000000000000E-01  9.2464737977659E-01  6.0306815753991E-01
79  7.8000000000000E-01  8.9617599861996E-01  6.2304607056405E-01
80  7.9000000000000E-01  8.6737683072800E-01  6.4228005190282E-01
81  8.0000000000000E-01  8.3829456868418E-01  6.6079232383809E-01
82  8.1000000000000E-01  8.0897221194237E-01  6.7861460244846E-01
83  8.2000000000000E-01  7.7945100272501E-01  6.9578766799540E-01
84  8.3000000000000E-01  7.4977038289056E-01  7.1236082832195E-01
85  8.4000000000000E-01  7.1996797161228E-01  7.2839127929334E-01
86  8.5000000000000E-01  6.9007956350697E-01  7.4394336736232E-01
87  8.6000000000000E-01  6.6013914665497E-01  7.5908776035277E-01
88  8.7000000000000E-01  6.3017893976424E-01  7.7390053350726E-01
89  8.8000000000000E-01  6.0022944755355E-01  7.8846217873443E-01
90  8.9000000000000E-01  5.7031953326393E-01  8.0285654580619E-01
91  9.0000000000000E-01  5.4047650705558E-01  8.1716972498892E-01
92  9.1000000000000E-01  5.1072622891023E-01  8.3148888123843E-01
93  9.2000000000000E-01  4.8109322453852E-01  8.4590105063964E-01
94  9.3000000000000E-01  4.5160081268738E-01  8.6049191022586E-01
95  9.4000000000000E-01  4.2227124215672E-01  8.7534453266391E-01
96  9.5000000000000E-01  3.9312583676593E-01  8.9053813753886E-01
97  9.6000000000000E-01  3.6418514646043E-01  9.0614685111574E-01
98  9.7000000000000E-01  3.3546910271628E-01  9.2223848649402E-01
99  9.8000000000000E-01  3.0699717638571E-01  9.3887335600689E-01
100  9.9000000000000E-01  2.7878853612864E-01  9.5610312755400E-01
101  1.0000000000000E+00  2.5086220559316E-01  9.7396973629619E-01
102  1.0100000000000E+00  2.2323721754093E-01  9.9250436279064E-01
103  1.0200000000000E+00  1.9593276316058E-01  1.0117264882091E+00
104  1.0300000000000E+00  1.6896833487065E-01  1.0316430367682E+00
105  1.0400000000000E+00  1.4236386098432E-01  1.0522476149163E+00
106  1.0500000000000E+00  1.1613983068648E-01  1.0735198561742E+00
107  1.0600000000000E+00  9.0317407860943E-02  1.0954248798251E+00
108  1.0700000000000E+00  6.4918532397364E-02  1.1179128709031E+00
109  1.0800000000000E+00  3.9966007704141E-02  1.1409187881448E+00
110  1.0900000000000E+00  1.5483573252010E-02  1.1643622057561E+00
111  1.1000000000000E+00 -8.5040389272769E-03  1.1881472940155E+00
112  1.1100000000000E+00 -3.1971064764169E-02  1.2121629428899E+00
113  1.1200000000000E+00 -5.4890686576342E-02  1.2362830319882E+00
114  1.1300000000000E+00 -7.7235030181738E-02  1.2603668493341E+00
115  1.1400000000000E+00 -9.8975181395528E-02  1.2842596605895E+00
116  1.1500000000000E+00 -1.2008122252137E-01  1.3077934295362E+00
117  1.1600000000000E+00 -1.4052228936579E-01  1.3307876897971E+00
118  1.1700000000000E+00 -1.6026664922799E-01  1.3530505669755E+00
119  1.1800000000000E+00 -1.7928180024388E-01  1.3743799495945E+00
120  1.1900000000000E+00 -1.9753459239351E-01  1.3945648064382E+00
121  1.2000000000000E+00 -2.1499137041198E-01  1.4133866471136E+00
122  1.2100000000000E+00 -2.3161813877549E-01  1.4306211218780E+00
123  1.2200000000000E+00 -2.4738074886256E-01  1.4460397559845E+00
124  1.2300000000000E+00 -2.6224510831431E-01  1.4594118129926E+00
125  1.2400000000000E+00 -2.7617741253270E-01  1.4705062806513E+00
126  1.2500000000000E+00 -2.8914439815917E-01  1.4790939720723E+00
127  1.2600000000000E+00 -3.0111361826369E-01  1.4849497339651E+00
128  1.2700000000000E+00 -3.1205373884153E-01  1.4878547526712E+00
129  1.2800000000000E+00 -3.2193485605678E-01  1.4875989476003E+00
130  1.2900000000000E+00 -3.3072883348397E-01  1.4839834404152E+00
131  1.3000000000000E+00 -3.3840965837467E-01  1.4768230869038E+00
132  1.3100000000000E+00 -3.4495381570962E-01  1.4659490568943E+00
133  1.3200000000000E+00 -3.5034067848276E-01  1.4512114457880E+00
134  1.3300000000000E+00 -3.5455291229564E-01  1.4324818992776E+00
135  1.3400000000000E+00 -3.5757689190893E-01  1.4096562305379E+00
136  1.3500000000000E+00 -3.5940312689954E-01  1.3826570066197E+00
137  1.3600000000000E+00 -3.6002669299827E-01  1.3514360778939E+00
138  1.3700000000000E+00 -3.5944766502485E-01  1.3159770211506E+00
139  1.3800000000000E+00 -3.5767154658845E-01  1.2762974633246E+00
140  1.3900000000000E+00 -3.5470969087595E-01  1.2324512487649E+00
141  1.4000000000000E+00 -3.5057970589608E-01  1.1845304084445E+00
142  1.4100000000000E+00 -3.4530583648356E-01  1.1326668845040E+00
143  1.4200000000000E+00 -3.3891931417172E-01  1.0770339579474E+00
144  1.4300000000000E+00 -3.3145866472554E-01  1.0178473211972E+00
145  1.4400000000000E+00 -3.2296996166480E-01  9.5536573046898E-01
146  1.4500000000000E+00 -3.1350701249426E-01  8.8989116550684E-01
147  1.4600000000000E+00 -3.0313146260133E-01  8.2176841616588E-01
148  1.4700000000000E+00 -2.9191279983513E-01  7.5138400642385E-01
149  1.4800000000000E+00 -2.7992824068049E-01  6.7916435681140E-01
150  1.4900000000000E+00 -2.6726247664147E-01  6.0557307576268E-01
151  1.5000000000000E+00 -2.5400725695684E-01  5.3110725902931E-01
152  1.5100000000000E+00 -2.4026078107169E-01  4.5629266400615E-01
153  1.5200000000000E+00 -2.2612687136509E-01  3.8167761249298E-01
154  1.5300000000000E+00 -2.1171389350031E-01  3.0782546113820E-01
155  1.5400000000000E+00 -1.9713338835512E-01  2.3530546326719E-01
156  1.5500000000000E+00 -1.8249837585591E-01  1.6468182921779E-01
157  1.5600000000000E+00 -1.6792128712029E-01  9.6500774412395E-02
158  1.5700000000000E+00 -1.5351147711549E-01  3.1275325207961E-02
159  1.5800000000000E+00 -1.3937226398470E-01 -3.0532378612048E-02
160  1.5900000000000E+00 -1.2559743924510E-01 -8.8531546810077E-02
161  1.6000000000000E+00 -1.1226725455824E-01 -1.4242581190866E-01
162  1.6100000000000E+00 -9.9443742893261E-02 -1.9203970843536E-01
163  1.6200000000000E+00 -8.7173506277021E-02 -2.3729366958733E-01
164  1.6300000000000E+00 -7.5496066651913E-02 -2.7814378038786E-01
165  1.6400000000000E+00 -6.4445827030587E-02 -3.1456760103999E-01
166  1.6500000000000E+00 -5.4051750316261E-02 -3.4656594820136E-01
167  1.6600000000000E+00 -4.4337299654074E-02 -3.7416295307286E-01
168  1.6700000000000E+00 -3.5320381078441E-02 -3.9740620937935E-01
169  1.6800000000000E+00 -2.7013329158530E-02 -4.1636672522011E-01
170  1.6900000000000E+00 -1.9422936111197E-02 -4.3113867737687E-01
171  1.7000000000000E+00 -1.2550523988100E-02 -4.4183897104141E-01
172  1.7100000000000E+00 -6.3920590436784E-03 -4.4860661002881E-01
173  1.7200000000000E+00 -9.3830921167371E-04 -4.5160187046511E-01
174  1.7300000000000E+00  3.8249588359101E-03 -4.5100529827251E-01
175  1.7400000000000E+00  7.9167422130188E-03 -4.4701652277991E-01
176  1.7500000000000E+00  1.1360526896021E-02 -4.3985290205412E-01
177  1.7600000000000E+00  1.4183977271157E-02 -4.2974800838314E-01
178  1.7700000000000E+00  1.6418592566861E-02 -4.1694996489389E-01
179  1.7800000000000E+00  1.8099333011511E-02 -4.0171964645624E-01
180  1.7900000000000E+00  1.9264218785327E-02 -3.8432875898087E-01
181  1.8000000000000E+00  1.9953905130863E-02 -3.6505781263811E-01
182  1.8100000000000E+00  2.0211237186580E-02 -3.4419400540721E-01
183  1.8200000000000E+00  2.0080788328892E-02 -3.2202903441703E-01
184  1.8300000000000E+00  1.9608385975742E-02 -2.9885685331714E-01
185  1.8400000000000E+00  1.8840628927533E-02 -2.7497139447683E-01
186  1.8500000000000E+00  1.7824400431408E-02 -2.5066427534017E-01
187  1.8600000000000E+00  1.6606381191600E-02 -2.2622250841331E-01
188  1.8700000000000E+00  1.5232566582926E-02 -2.0192623454137E-01
189  1.8800000000000E+00  1.3747794195016E-02 -1.7804650604466E-01
190  1.8900000000000E+00  1.2195264756988E-02 -1.5484306138854E-01
191  1.9000000000000E+00  1.0616156344975E-02 -1.3256245799765E-01
192  1.9100000000000E+00  9.0490552949592E-03 -1.1143558196524E-01
193  1.9200000000000E+00  7.5278542629730E-03 -9.1669404449912E-02
194  1.9300000000000E+00  6.0832424182637E-03 -7.3452042053609E-02
195  1.9400000000000E+00  4.7456487180366E-03 -5.6963435686601E-02
196  1.9500000000000E+00  3.5411946211027E-03 -4.2360305750512E-02
197  1.9600000000000E+00  2.4916858041526E-03 -2.9775812300978E-02
198  1.9700000000000E+00  1.6143314491272E-03 -1.9318278677477E-02
199  1.9800000000000E+00  9.2184420678416E-04 -1.1073786901717E-02
200  1.9900000000000E+00  4.1982787693627E-04 -5.0746446999887E-03
201  2.0000000000000E+00  1.1597639460795E-04 -1.4144270528753E-03
202  2.0100000000000E+00  3.9662320833883E-06 -4.8932164894093E-05
203  2.0200000000000E+00 -3.6155625523861E-06  4.4756428928029E-05
204  2.0300000000000E+00  1.8765686933421E-06 -2.3039051284505E-05
205  2.04 -0.  0.
206  2.05 -0. -0.
207  2.06  0.  0.
208  2.07  0.  0.
209  2.08  0.  0.
210  2.09  0.  0.
211  2.10  0.  0.
212  2.11  0.  0.
213  2.12  0.  0.
214  2.13  0.  0.
215  2.14  0.  0.
216  2.15  0.  0.
217  2.16  0.  0.
218  2.17  0.  0.
219  2.18  0.  0.
220  2.19  0.  0.
221  2.20  0.  0.
222  2.21  0.  0.
223  2.22  0.  0.
224  2.23  0.  0.
225  2.24  0.  0.
226  2.25  0.  0.
227  2.26  0.  0.
228  2.27  0.  0.
229  2.28  0.  0.
230  2.29  0.  0.
231  2.30  0.  0.
232  2.31  0.  0.
233  2.32  0.  0.
234  2.33  0.  0.
235  2.34  0.  0.
236  2.35  0.  0.
237  2.36  0.  0.
238  2.37  0.  0.
239  2.38  0.  0.
240  2.39  0.  0.
241  2.40  0.  0.
242  2.41  0.  0.
243  2.42  0.  0.
244  2.43  0.  0.
245  2.44  0.  0.
246  2.45  0.  0.
247  2.46  0.  0.
248  2.47  0.  0.
249  2.48  0.  0.
250  2.49  0.  0.
251  2.50  0.  0.
252  2.51  0.  0.
253  2.52  0.  0.
254  2.53  0.  0.
255  2.54  0.  0.
256  2.55  0.  0.
257  2.56  0.  0.
258  2.57  0.  0.
259  2.58  0.  0.
260  2.59  0.  0.
261  2.60  0.  0.
262  2.61  0.  0.
263  2.62  0.  0.
264  2.63  0.  0.
265  2.64  0.  0.
266  2.65  0.  0.
267  2.66  0.  0.
268  2.67  0.  0.
269  2.68  0.  0.
270  2.69  0.  0.
271  2.70  0.  0.
272  2.71  0.  0.
273  2.72  0.  0.
274  2.73  0.  0.
275  2.74  0.  0.
276  2.75  0.  0.
277  2.76  0.  0.
278  2.77  0.  0.
279  2.78  0.  0.
280  2.79  0.  0.
281  2.80  0.  0.
282  2.81  0.  0.
283  2.82  0.  0.
284  2.83  0.  0.
285  2.84  0.  0.
286  2.85  0.  0.
287  2.86  0.  0.
288  2.87  0.  0.
289  2.88  0.  0.
290  2.89  0.  0.
291  2.90  0.  0.
292  2.91  0.  0.
293  2.92  0.  0.
294  2.93  0.  0.
295  2.94  0.  0.
296  2.95  0.  0.
297  2.96  0.  0.
298  2.97  0.  0.
299  2.98  0.  0.
300  2.99  0.  0.
301  3.00  0.  0.
302  3.01  0.  0.
303  3.02  0.  0.
304  3.03  0.  0.
305  3.04  0.  0.
306  3.05  0.  0.
307  3.06  0.  0.
308  3.07  0.  0.
309  3.08  0.  0.
310  3.09  0.  0.
311  3.10  0.  0.
312  3.11  0.  0.
313  3.12  0.  0.
314  3.13  0.  0.
315  3.14  0.  0.
316  3.15  0.  0.
317  3.16  0.  0.
318  3.17  0.  0.
319  3.18  0.  0.
320  3.19  0.  0.
321  3.20  0.  0.
322  3.21  0.  0.
323  3.22  0.  0.
324  3.23  0.  0.
325  3.24  0.  0.
326  3.25  0.  0.
327  3.26  0.  0.
328  3.27  0.  0.
329  3.28  0.  0.
330  3.29  0.  0.
331  3.30  0.  0.
332  3.31  0.  0.
333  3.32  0.  0.
334  3.33  0.  0.
335  3.34  0.  0.
336  3.35  0.  0.
337  3.36  0.  0.
338  3.37  0.  0.
339  3.38  0.  0.
340  3.39  0.  0.
341  3.40  0.  0.
342  3.41  0.  0.
343  3.42  0.  0.
344  3.43  0.  0.
345  3.44  0.  0.
346  3.45  0.  0.
347  3.46  0.  0.
348  3.47  0.  0.
349  3.48  0.  0.
350  3.49  0.  0.
351  3.50  0.  0.
352  3.51  0.  0.
353  3.52  0.  0.
354  3.53  0.  0.
355  3.54  0.  0.
356  3.55  0.  0.
357  3.56  0.  0.
358  3.57  0.  0.
359  3.58  0.  0.
360  3.59  0.  0.
361  3.60  0.  0.
362  3.61  0.  0.
363  3.62  0.  0.
364  3.63  0.  0.
365  3.64  0.  0.
366  3.65  0.  0.
367  3.66  0.  0.
368  3.67  0.  0.
369  3.68  0.  0.
370  3.69  0.  0.
371  3.70  0.  0.
372  3.71  0.  0.
373  3.72  0.  0.
374  3.73  0.  0.
375  3.74  0.  0.
376  3.75  0.  0.
377  3.76  0.  0.
378  3.77  0.  0.
379  3.78  0.  0.
380  3.79  0.  0.
381  3.80  0.  0.
382  3.81  0.  0.
383  3.82  0.  0.
384  3.83  0.  0.
385  3.84  0.  0.
386  3.85  0.  0.
387  3.86  0.  0.
388  3.87  0.  0.
389  3.88  0.  0.
390  3.89  0.  0.
391  3.90  0.  0.
392  3.91  0.  0.
393  3.92  0.  0.
394  3.93  0.  0.
395  3.94  0.  0.
396  3.95  0.  0.
397  3.96  0.  0.
398  3.97  0.  0.
399  3.98  0.  0.
400  3.99  0.  0.
401  4.00  0.  0.
402  4.01  0.  0.
403  4.02  0.  0.
404  4.03  0.  0.
405  4.04  0.  0.
406  4.05  0.  0.
407  4.06  0.  0.
408  4.07  0.  0.
409  4.08  0.  0.
410  4.09  0.  0.
411  4.10  0.  0.
412  4.11  0.  0.
413  4.12  0.  0.
414  4.13  0.  0.
415  4.14  0.  0.
416  4.15  0.  0.
417  4.16  0.  0.
418  4.17  0.  0.
419  4.18  0.  0.
420  4.19  0.  0.
421  4.20  0.  0.
422  4.21  0.  0.
423  4.22  0.  0.
424  4.23  0.  0.
425  4.24  0.  0.
426  4.25  0.  0.
427  4.26  0.  0.
428  4.27  0.  0.
429  4.28  0.  0.
430  4.29  0.  0.
431  4.30  0.  0.
432  4.31  0.  0.
433  4.32  0.  0.
434  4.33  0.  0.
435  4.34  0.  0.
436  4.35  0.  0.
437  4.36  0.  0.
438  4.37  0.  0.
439  4.38  0.  0.
440  4.39  0.  0.
441  4.40  0.  0.
442  4.41  0.  0.
443  4.42  0.  0.
444  4.43  0.  0.
445  4.44  0.  0.
446  4.45  0.  0.
447  4.46  0.  0.
448  4.47  0.  0.
449  4.48  0.  0.
450  4.49  0.  0.
451  4.50  0.  0.
452  4.51  0.  0.
453  4.52  0.  0.
454  4.53  0.  0.
455  4.54  0.  0.
456  4.55  0.  0.
457  4.56  0.  0.
458  4.57  0.  0.
459  4.58  0.  0.
460  4.59  0.  0.
461  4.60  0.  0.
462  4.61  0.  0.
463  4.62  0.  0.
464  4.63  0.  0.
465  4.64  0.  0.
466  4.65  0.  0.
467  4.66  0.  0.
468  4.67  0.  0.
469  4.68  0.  0.
470  4.69  0.  0.
471  4.70  0.  0.
472  4.71  0.  0.
473  4.72  0.  0.
474  4.73  0.  0.
475  4.74  0.  0.
476  4.75  0.  0.
477  4.76  0.  0.
478  4.77  0.  0.
479  4.78  0.  0.
480  4.79  0.  0.
481  4.80  0.  0.
482  4.81  0.  0.
483  4.82  0.  0.
484  4.83  0.  0.
485  4.84  0.  0.
486  4.85  0.  0.
487  4.86  0.  0.
488  4.87  0.  0.
489  4.88  0.  0.
490  4.89  0.  0.
491  4.90  0.  0.
492  4.91  0.  0.
493  4.92  0.  0.
494  4.93  0.  0.
495  4.94  0.  0.
496  4.95  0.  0.
497  4.96  0.  0.
498  4.97  0.  0.
499  4.98  0.  0.
500  4.99  0.  0.
501  5.00  0.  0.
502  5.01  0.  0.
503  5.02  0.  0.
504  5.03  0.  0.
505  5.04  0.  0.
506  5.05  0.  0.
507  5.06  0.  0.
508  5.07  0.  0.
509  5.08  0.  0.
510  5.09  0.  0.
511  5.10  0.  0.
512  5.11  0.  0.
513  5.12  0.  0.
514  5.13  0.  0.
515  5.14  0.  0.
516  5.15  0.  0.
517  5.16  0.  0.
518  5.17  0.  0.
519  5.18  0.  0.
520  5.19  0.  0.
521  5.20  0.  0.
522  5.21  0.  0.
523  5.22  0.  0.
524  5.23  0.  0.
525  5.24  0.  0.
526  5.25  0.  0.
527  5.26  0.  0.
528  5.27  0.  0.
529  5.28  0.  0.
530  5.29  0.  0.
531  5.30  0.  0.
532  5.31  0.  0.
533  5.32  0.  0.
534  5.33  0.  0.
535  5.34  0.  0.
536  5.35  0.  0.
537  5.36  0.  0.
538  5.37  0.  0.
539  5.38  0.  0.
540  5.39  0.  0.
541  5.40  0.  0.
542  5.41  0.  0.
543  5.42  0.  0.
544  5.43  0.  0.
545  5.44  0.  0.
546  5.45  0.  0.
547  5.46  0.  0.
548  5.47  0.  0.
549  5.48  0.  0.
550  5.49  0.  0.
551  5.50  0.  0.
552  5.51  0.  0.
553  5.52  0.  0.
554  5.53  0.  0.
555  5.54  0.  0.
556  5.55  0.  0.
557  5.56  0.  0.
558  5.57  0.  0.
559  5.58  0.  0.
560  5.59  0.  0.
561  5.60  0.  0.
562  5.61  0.  0.
563  5.62  0.  0.
564  5.63  0.  0.
565  5.64  0.  0.
566  5.65  0.  0.
567  5.66  0.  0.
568  5.67  0.  0.
569  5.68  0.  0.
570  5.69  0.  0.
571  5.70  0.  0.
572  5.71  0.  0.
573  5.72  0.  0.
574  5.73  0.  0.
575  5.74  0.  0.
576  5.75  0.  0.
577  5.76  0.  0.
578  5.77  0.  0.
579  5.78  0.  0.
580  5.79  0.  0.
581  5.80  0.  0.
582  5.81  0.  0.
583  5.82  0.  0.
584  5.83  0.  0.
585  5.84  0.  0.
586  5.85  0.  0.
587  5.86  0.  0.
588  5.87  0.  0.
589  5.88  0.  0.
590  5.89  0.  0.
591  5.90  0.  0.
592  5.91  0.  0.
593  5.92  0.  0.
594  5.93  0.  0.
595  5.94  0.  0.
596  5.95  0.  0.
597  5.96  0.  0.
598  5.97  0.  0.
599  5.98  0.  0.
600  5.99  0.  0.
1                         5.0487847246655E+00  2.6855801538826E-01
1  0.0000000000000E+00  7.7054282676681E-09 -7.6500419388115E-08
2  1.0000000000000E-02  1.4108714622203E-03 -5.3473238689645E-03
3  2.0000000000000E-02  5.6298473200926E-03 -2.1270265727382E-02
4  3.0000000000000E-02  1.2616248515000E-02 -4.7414085434190E-02
5  4.0000000000000E-02  2.2303060514682E-02 -8.3195334944777E-02
6  5.0000000000000E-02  3.4598093403090E-02 -1.2781338055444E-01
7  6.0000000000000E-02  4.9385574798562E-02 -1.8026622496599E-01
8  7.0000000000000E-02  6.6528145108098E-02 -2.3937032708148E-01
9  8.0000000000000E-02  8.5869216920086E-02 -3.0378404091724E-01
10  9.0000000000000E-02  1.0723565336145E-01 -3.7203422565272E-01
11  1.0000000000000E-01  1.3044071413128E-01 -4.4254551784977E-01
12  1.1000000000000E-01  1.5528721278886E-01 -5.1367170547381E-01
13  1.2000000000000E-01  1.8157082481860E-01 -5.8372860248109E-01
14  1.3000000000000E-01  2.0908348309616E-01 -6.5102779318741E-01
15  1.4000000000000E-01  2.3761679569577E-01 -7.1391059796721E-01
16  1.5000000000000E-01  2.6696542054227E-01 -7.7078160639479E-01
17  1.6000000000000E-01  2.9693033223277E-01 -8.2014113084938E-01
18  1.7000000000000E-01  3.2732191841867E-01 -8.6061595274956E-01
19  1.8000000000000E-01  3.5796284641164E-01 -8.9098776462100E-01
20  1.9000000000000E-01  3.8869064509702E-01 -9.1021875356909E-01
21  2.0000000000000E-01  4.1935995272312E-01 -9.1747382465260E-01
22  2.1000000000000E-01  4.4984438758200E-01 -9.1213902515825E-01
23  2.2000000000000E-01  4.8003800588693E-01 -8.9383580170883E-01
24  2.3000000000000E-01  5.0985631914511E-01 -8.6243080018244E-01
25  2.4000000000000E-01  5.3923685187219E-01 -8.1804100213076E-01
26  2.5000000000000E-01  5.6813922943464E-01 -7.6103407920005E-01
27  2.6000000000000E-01  5.9654479496819E-01 -6.9202393734522E-01
28  2.7000000000000E-01  6.2445576353120E-01 -6.1186151369334E-01
29  2.8000000000000E-01  6.5189393073401E-01 -5.2162097905633E-01
30  2.9000000000000E-01  6.7889896186678E-01 -4.2258158661693E-01
31  3.0000000000000E-01  7.0552629585867E-01 -3.1620549057174E-01
32  3.1000000000000E-01  7.3184470608123E-01 -2.0411193593488E-01
33  3.2000000000000E-01  7.5793356690815E-01 -8.8048290819530E-02
34  3.3000000000000E-01  7.8387988092853E-01  3.0141546015894E-02
35  3.4000000000000E-01  8.0977512666269E-01  1.4855077792013E-01
36  3.5000000000000E-01  8.3571199044907E-01  2.6524475813478E-01
37  3.6000000000000E-01  8.6178104878120E-01  3.7829679813606E-01
38  3.7000000000000E-01  8.8806746871822E-01  4.8582406504879E-01
39  3.8000000000000E-01  9.1464779404122E-01  5.8602289220179E-01
40  3.9000000000000E-01  9.4158688357165E-01  6.7720283513554E-01
41  4.0000000000000E-01  9.6893506552692E-01  7.5781882618791E-01
42  4.1000000000000E-01  9.9672556800209E-01  8.2650081382723E-01
43  4.2000000000000E-01  1.0249722807029E+00  8.8208031759673E-01
44  4.3000000000000E-01  1.0536678970009E+00  9.2361338508179E-01
45  4.4000000000000E-01  1.0827824783486E+00  9.5039950271256E-01
46  4.5000000000000E-01  1.1122624752047E+00  9.6199608627532E-01
47  4.6000000000000E-01  1.1420302300305E+00  9.5822825837346E-01
48  4.7000000000000E-01  1.1719839787780E+00  9.3919370725104E-01
49  4.8000000000000E-01  1.2019983577787E+00  9.0526251276087E-01
50  4.9000000000000E-01  1.2319254132304E+00  8.5707191912363E-01
51  5.0000000000000E-01  1.2615961007565E+00  7.9551612873630E-01
52  5.1000000000000E-01  1.2908222529615E+00  7.2173128487852E-01
53  5.2000000000000E-01  1.3193989837068E+00  6.3707590197085E-01
54  5.3000000000000E-01  1.3471074891682E+00  5.4310708835140E-01
55  5.4000000000000E-01  1.3737181977663E+00  4.4155298671818E-01
56  5.5000000000000E-01  1.3989942139505E+00  3.3428192990599E-01
57  5.6000000000000E-01  1.4226949947000E+00  2.2326887314266E-01
58  5.7000000000000E-01  1.4445801926026E+00  1.1055971712990E-01
59  5.8000000000000E-01  1.4644135955936E+00 -1.7658218156702E-03
60  5.9000000000000E-01  1.4819670909504E+00 -1.1163210857672E-01
61  6.0000000000000E-01  1.4970245800102E+00 -2.1700555001608E-01
62  6.1000000000000E-01  1.5093857703301E+00 -3.1593191284774E-01
63  6.2000000000000E-01  1.5188697736479E+00 -4.0657230106819E-01
64  6.3000000000000E-01  1.5253184410045E+00 -4.8723711788044E-01
65  6.4000000000000E-01  1.5285993707114E+00 -5.5641737224383E-01
66  6.5000000000000E-01  1.5286085304040E+00 -6.1281273751218E-01
67  6.6000000000000E-01  1.5252724411292E+00 -6.5535582823561E-01
68  6.7000000000000E-01  1.5185498791461E+00 -6.8323223004093E-01
69  6.8000000000000E-01  1.5084330597328E+00 -6.9589589531095E-01
70  6.9000000000000E-01  1.4949482766320E+00 -6.9307960273128E-01
71  7.0000000000000E-01  1.4781559806661E+00 -6.7480027007965E-01
72  7.1000000000000E-01  1.4581502913157E+00 -6.4135900520829E-01
73  7.2000000000000E-01  1.4350579455032E+00 -5.9333587822512E-01
74  7.3000000000000E-01  1.4090366982469E+00 -5.3157949658521E-01
75  7.4000000000000E-01  1.3802732000643E+00 -4.5719156229492E-01
76  7.5000000000000E-01  1.3489803858073E+00 -3.7150668487968E-01
77  7.6000000000000E-01  1.3153944188148E+00 -2.7606781337299E-01
78  7.7000000000000E-01  1.2797712427058E+00 -1.7259773365110E-01
79  7.8000000000000E-01  1.2423828006266E+00 -6.2967152376643E-02
80  7.9000000000000E-01  1.2035129881812E+00  5.0840045808753E-02
81  8.0000000000000E-01  1.1634534114758E+00  1.6676372665763E-01
82  8.1000000000000E-01  1.1224990255961E+00  2.8270593640852E-01
83  8.2000000000000E-01  1.0809437313291E+00  3.9657011981706E-01
84  8.3000000000000E-01  1.0390760089909E+00  5.0630039573994E-01
85  8.4000000000000E-01  9.9717466779208E-01  6.0992015695632E-01
86  8.5000000000000E-01  9.5550478727566E-01  7.0556927175106E-01
87  8.6000000000000E-01  9.1431392402034E-01  7.9153918922185E-01
88  8.7000000000000E-01  8.7382865207585E-01  8.6630528788063E-01
89  8.8000000000000E-01  8.3425149957028E-01  9.2855585722127E-01
90  8.9000000000000E-01  7.9575833671060E-01  9.7721716359498E-01
91  9.0000000000000E-01  7.5849626211884E-01  1.0114741238435E+00
92  9.1000000000000E-01  7.2258202526203E-01  1.0307861913335E+00
93  9.2000000000000E-01  6.8810101281380E-01  1.0348981478066E+00
94  9.3000000000000E-01  6.5510681631536E-01  1.0238455891380E+00
95  9.4000000000000E-01  6.2362138768095E-01  9.9795499190740E-01
96  9.5000000000000E-01  5.9363577812009E-01  9.5783834876894E-01
97  9.6000000000000E-01  5.6511144513721E-01  9.0438246203863E-01
98  9.7000000000000E-01  5.3798210162099E-01  8.3873308481577E-01
99  9.8000000000000E-01  5.1215607085716E-01  7.6227419539920E-01
100  9.9000000000000E-01  4.8751910178279E-01  6.7660278194185E-01
101  1.0000000000000E+00  4.6393759013020E-01  5.8349959846138E-01
102  1.0100000000000E+00  4.4126214344777E-01  4.8489642894232E-01
103  1.0200000000000E+00  4.1933142148300E-01  3.8284046185363E-01
104  1.0300000000000E+00  3.9797617819750E-01  2.7945643172848E-01
105  1.0400000000000E+00  3.7702342784924E-01  1.7690722652039E-01
106  1.0500000000000E+00  3.5630065520395E-01  7.7353688450582E-02
107  1.0600000000000E+00  3.3563998907135E-01 -1.7085648565607E-02
108  1.0700000000000E+00  3.1488225901654E-01 -1.0437414029329E-01
109  1.0800000000000E+00  2.9388085727092E-01 -1.8259520016188E-01
110  1.0900000000000E+00  2.7250533150090E-01 -2.4998834762642E-01
111  1.1000000000000E+00  2.5064463915284E-01 -3.0498246995028E-01
112  1.1100000000000E+00  2.2821000043001E-01 -3.4622568183619E-01
113  1.1200000000000E+00  2.0513729452238E-01 -3.7261123041221E-01
114  1.1300000000000E+00  1.8138895227707E-01 -3.8329896596097E-01
115  1.1400000000000E+00  1.5695530799174E-01 -3.7773198080378E-01
116  1.1500000000000E+00  1.3185538316267E-01 -3.5564810756342E-01
117  1.1600000000000E+00  1.0613708573077E-01 -3.1708606280501E-01
118  1.1700000000000E+00  7.9876819323222E-02 -2.6238611996791E-01
119  1.1800000000000E+00  5.3178508122042E-02 -1.9218529599008E-01
120  1.1900000000000E+00  2.6172053912560E-02 -1.0740713556619E-01
121  1.2000000000000E+00 -9.8874741772340E-04 -9.2462756527050E-03
122  1.2100000000000E+00 -2.8128792571836E-02  1.0085193325085E-01
123  1.2200000000000E+00 -5.5054713905694E-02  2.2121638329259E-01
124  1.2300000000000E+00 -8.1558323502850E-02  3.4997929546281E-01
125  1.2400000000000E+00 -1.0742039541716E-01  4.8510891526143E-01
126  1.2500000000000E+00 -1.3241471689452E-01  6.2444523374205E-01
127  1.2600000000000E+00 -1.5631233438692E-01  7.6573809777981E-01
128  1.2700000000000E+00 -1.7888591652544E-01  9.0668703288784E-01
129  1.2800000000000E+00 -1.9991415403577E-01  1.0449820740426E+00
130  1.2900000000000E+00 -2.1918611588254E-01  1.1783448851011E+00
131  1.3000000000000E+00 -2.3650548171242E-01  1.3045694454706E+00
132  1.3100000000000E+00 -2.5169457292925E-01  1.4215615938469E+00
133  1.3200000000000E+00 -2.6459810840676E-01  1.5273767425222E+00