Eu    ONCVPSP-4.0.1  r_core=   2.01108   1.60216   1.90567   1.60216
63.0000     17.0000      250626    zatom,zion,pspd
8      11   3     4   600     0    pspcod,pspxc,lmax,lloc,mmax,r2well
5.99000000 39.00000000  0.00000000    rchrg fchrg qchrg
2     2     2     2     0    nproj
1     1           extension_switch
0                         9.5394526307394E+00  2.9924657690085E-01
1  0.0000000000000E+00  3.7475911263130E-11 -2.3818338967807E-10
2  1.0000000000000E-02  4.9694832843290E-02 -2.9002915411816E-02
3  2.0000000000000E-02  9.9338705479312E-02 -5.7963736005710E-02
4  3.0000000000000E-02  1.4888061567381E-01 -8.6839919272590E-02
5  4.0000000000000E-02  1.9826947822441E-01 -1.1558803372587E-01
6  5.0000000000000E-02  2.4745408618153E-01 -1.4416333036411E-01
7  6.0000000000000E-02  2.9638307528879E-01 -1.7251933310560E-01
8  7.0000000000000E-02  3.4500489267168E-01 -2.0060745423784E-01
9  8.0000000000000E-02  3.9326777076608E-01 -2.2837664068646E-01
10  9.0000000000000E-02  4.4111970743176E-01 -2.5577305661446E-01
11  1.0000000000000E-01  4.8850845314129E-01 -2.8273980751538E-01
12  1.1000000000000E-01  5.3538150607188E-01 -3.0921671056589E-01
13  1.2000000000000E-01  5.8168611585720E-01 -3.3514011555860E-01
14  1.3000000000000E-01  6.2736929667851E-01 -3.6044278024681E-01
15  1.4000000000000E-01  6.7237785029071E-01 -3.8505380340512E-01
16  1.5000000000000E-01  7.1665839948846E-01 -4.0889861834608E-01
17  1.6000000000000E-01  7.6015743242273E-01 -4.3189904903977E-01
18  1.7000000000000E-01  8.0282135807838E-01 -4.5397343036355E-01
19  1.8000000000000E-01  8.4459657311990E-01 -4.7503679336996E-01
20  1.9000000000000E-01  8.8542954020617E-01 -4.9500111580632E-01
21  2.0000000000000E-01  9.2526687776675E-01 -5.1377563745561E-01
22  2.1000000000000E-01  9.6405546112208E-01 -5.3126723920092E-01
23  2.2000000000000E-01  1.0017425347201E+00 -5.4738088405038E-01
24  2.3000000000000E-01  1.0382758351516E+00 -5.6202011770122E-01
25  2.4000000000000E-01  1.0736037244980E+00 -5.7508762557767E-01
26  2.5000000000000E-01  1.1076753334590E+00 -5.8648584265177E-01
27  2.6000000000000E-01  1.1404407136031E+00 -5.9611761175548E-01
28  2.7000000000000E-01  1.1718509979844E+00 -6.0388688552169E-01
29  2.8000000000000E-01  1.2018585692739E+00 -6.0969946655513E-01
30  2.9000000000000E-01  1.2304172344631E+00 -6.1346377993951E-01
31  3.0000000000000E-01  1.2574824051130E+00 -6.1509167173489E-01
32  3.1000000000000E-01  1.2830112820440E+00 -6.1449922671700E-01
33  3.2000000000000E-01  1.3069630432945E+00 -6.1160759826111E-01
34  3.3000000000000E-01  1.3292990341093E+00 -6.0634384297969E-01
35  3.4000000000000E-01  1.3499829576699E+00 -5.9864175248935E-01
36  3.5000000000000E-01  1.3689810652303E+00 -5.8844267451107E-01
37  3.6000000000000E-01  1.3862623442897E+00 -5.7569631540202E-01
38  3.7000000000000E-01  1.4017987034057E+00 -5.6036151617508E-01
39  3.8000000000000E-01  1.4155651522380E+00 -5.4240699409002E-01
40  3.9000000000000E-01  1.4275399754052E+00 -5.2181204199587E-01
41  4.0000000000000E-01  1.4377048987461E+00 -4.9856717776580E-01
42  4.1000000000000E-01  1.4460452465896E+00 -4.7267473639919E-01
43  4.2000000000000E-01  1.4525500886662E+00 -4.4414939766233E-01
44  4.3000000000000E-01  1.4572123753291E+00 -4.1301864250536E-01
45  4.4000000000000E-01  1.4600290598029E+00 -3.7932313191887E-01
46  4.5000000000000E-01  1.4610012062329E+00 -3.4311700238485E-01
47  4.6000000000000E-01  1.4601340823778E+00 -3.0446807262274E-01
48  4.7000000000000E-01  1.4574372358636E+00 -2.6345795693436E-01
49  4.8000000000000E-01  1.4529245530043E+00 -2.2018208110480E-01
50  4.9000000000000E-01  1.4466142992894E+00 -1.7474959751557E-01
51  5.0000000000000E-01  1.4385291407398E+00 -1.2728319686861E-01
52  5.1000000000000E-01  1.4286961454467E+00 -7.7918814697482E-02
53  5.2000000000000E-01  1.4171467647214E+00 -2.6805231651635E-02
54  5.3000000000000E-01  1.4039167934123E+00  2.5896432625670E-02
55  5.4000000000000E-01  1.3890463090679E+00  8.0013331350560E-02
56  5.5000000000000E-01  1.3725795897628E+00  1.3536160664175E-01
57  5.6000000000000E-01  1.3545650105382E+00  1.9174720733617E-01
58  5.7000000000000E-01  1.3350549185466E+00  2.4896680528865E-01
59  5.8000000000000E-01  1.3141054871346E+00  3.0680880599669E-01
60  5.9000000000000E-01  1.2917765492392E+00  3.6505444853892E-01
61  6.0000000000000E-01  1.2681314106124E+00  4.2347898898028E-01
62  6.1000000000000E-01  1.2432366435351E+00  4.8185296058926E-01
63  6.2000000000000E-01  1.2171618618181E+00  5.3994350343688E-01
64  6.3000000000000E-01  1.1899794780240E+00  5.9751575521090E-01
65  6.4000000000000E-01  1.1617644439790E+00  6.5433429438867E-01
66  6.5000000000000E-01  1.1325939757711E+00  7.1016462627137E-01
67  6.6000000000000E-01  1.1025472645518E+00  7.6477470179995E-01
68  6.7000000000000E-01  1.0717051745795E+00  8.1793645855283E-01
69  6.8000000000000E-01  1.0401499300448E+00  8.6942737287048E-01
70  6.9000000000000E-01  1.0079647923269E+00  9.1903201166982E-01
71  7.0000000000000E-01  9.7523372941353E-01  9.6654357220554E-01
72  7.1000000000000E-01  9.4204107930710E-01  1.0117653978056E+00
73  7.2000000000000E-01  9.0847120930573E-01  1.0545124574642E+00
74  7.3000000000000E-01  8.7460817311244E-01  1.0946127771135E+00
75  7.4000000000000E-01  8.4053536777384E-01  1.1319088104244E+00
76  7.5000000000000E-01  8.0633519248776E-01  1.1662587370970E+00
77  7.6000000000000E-01  7.7208871134439E-01  1.1975376768112E+00
78  7.7000000000000E-01  7.3787532207775E-01  1.2256388073003E+00
79  7.8000000000000E-01  7.0377243290396E-01  1.2504743753952E+00
80  7.9000000000000E-01  6.6985514950813E-01  1.2719765903637E+00
81  8.0000000000000E-01  6.3619597421466E-01  1.2900983894318E+00
82  8.1000000000000E-01  6.0286451933404E-01  1.3048140660258E+00
83  8.2000000000000E-01  5.6992723662459E-01  1.3161197520073E+00
84  8.3000000000000E-01  5.3744716473885E-01  1.3240337459954E+00
85  8.4000000000000E-01  5.0548369644220E-01  1.3285966807637E+00
86  8.5000000000000E-01  4.7409236729600E-01  1.3298715236749E+00
87  8.6000000000000E-01  4.4332466738870E-01  1.3279434051626E+00
88  8.7000000000000E-01  4.1322787757715E-01  1.3229192713787E+00
89  8.8000000000000E-01  3.8384493156637E-01  1.3149273583040E+00
90  8.9000000000000E-01  3.5521430501026E-01  1.3041164858507E+00
91  9.0000000000000E-01  3.2736993265851E-01  1.2906551717715E+00
92  9.1000000000000E-01  3.0034115440638E-01  1.2747305665222E+00
93  9.2000000000000E-01  2.7415269092609E-01  1.2565472115967E+00
94  9.3000000000000E-01  2.4882464936974E-01  1.2363256252597E+00
95  9.4000000000000E-01  2.2437255943738E-01  1.2143007210369E+00
96  9.5000000000000E-01  2.0080743989834E-01  1.1907200657775E+00
97  9.6000000000000E-01  1.7813589544224E-01  1.1658419855701E+00
98  9.7000000000000E-01  1.5636024351721E-01  1.1399335292721E+00
99  9.8000000000000E-01  1.3547867058977E-01  1.1132683008806E+00
100  9.9000000000000E-01  1.1548541703237E-01  1.0861241734429E+00
101  1.0000000000000E+00  9.6370989614267E-02  1.0587808986490E+00
102  1.0100000000000E+00  7.8122400337775E-02  1.0315176276733E+00
103  1.0200000000000E+00  6.0723430128915E-02  1.0046103602187E+00
104  1.0300000000000E+00  4.4154915657764E-02  9.7832934006875E-01
105  1.0400000000000E+00  2.8395057333070E-02  9.5293641674241E-01
106  1.0500000000000E+00  1.3419746287098E-02  9.2868239408531E-01
107  1.0600000000000E+00 -7.9709205598575E-04  9.0580438779298E-01
108  1.0700000000000E+00 -1.4283140452242E-02  8.8452321494508E-01
109  1.0800000000000E+00 -2.7067321183683E-02  8.6504083962200E-01
110  1.0900000000000E+00 -3.9179419309763E-02  8.4753789956169E-01
111  1.1000000000000E+00 -5.0649701045376E-02  8.3217133959069E-01
112  1.1100000000000E+00 -6.1508530660375E-02  8.1907217820816E-01
113  1.1200000000000E+00 -7.1785989455566E-02  8.0834343420840E-01
114  1.1300000000000E+00 -8.1511500512160E-02  8.0005824057914E-01
115  1.1400000000000E+00 -9.0713463034608E-02  7.9425817309327E-01
116  1.1500000000000E+00 -9.9418900207739E-02  7.9095182100969E-01
117  1.1600000000000E+00 -1.0765312456614E-01  7.9011362709051E-01
118  1.1700000000000E+00 -1.1543942492398E-01  7.9168302371701E-01
119  1.1800000000000E+00 -1.2279877893444E-01  7.9556389121635E-01
120  1.1900000000000E+00 -1.2974959533697E-01  8.0162436358614E-01
121  1.2000000000000E+00 -1.3630748990431E-01  8.0969700558896E-01
122  1.2100000000000E+00 -1.4248509901699E-01  8.1957938367274E-01
123  1.2200000000000E+00 -1.4829193466764E-01  8.3103505132177E-01
124  1.2300000000000E+00 -1.5373428452644E-01  8.4379496722815E-01
125  1.2400000000000E+00 -1.5881516048118E-01  8.5755936208549E-01
126  1.2500000000000E+00 -1.6353429879295E-01  8.7200006677194E-01
127  1.2600000000000E+00 -1.6788821468243E-01  8.8676331123292E-01
128  1.2700000000000E+00 -1.7187031377361E-01  9.0147299941099E-01
129  1.2800000000000E+00 -1.7547106236816E-01  9.1573446107610E-01
130  1.2900000000000E+00 -1.7867821800294E-01  9.2913867637621E-01
131  1.3000000000000E+00 -1.8147712114583E-01  9.4126696326415E-01
132  1.3100000000000E+00 -1.8385104820771E-01  9.5169611163973E-01
133  1.3200000000000E+00 -1.8578162528741E-01  9.6000394104167E-01
134  1.3300000000000E+00 -1.8724930121575E-01  9.6577525097862E-01
135  1.3400000000000E+00 -1.8823387751184E-01  9.6860812439095E-01
136  1.3500000000000E+00 -1.8871509181360E-01  9.6812053532392E-01
137  1.3600000000000E+00 -1.8867325018254E-01  9.6395720155095E-01
138  1.3700000000000E+00 -1.8808990240181E-01  9.5579661154305E-01
139  1.3800000000000E+00 -1.8694855298033E-01  9.4335814278163E-01
140  1.3900000000000E+00 -1.8523539904051E-01  9.2640917491661E-01
141  1.4000000000000E+00 -1.8294008458635E-01  9.0477208654332E-01
142  1.4100000000000E+00 -1.8005645882713E-01  8.7833100843538E-01
143  1.4200000000000E+00 -1.7658332423656E-01  8.4703818864884E-01
144  1.4300000000000E+00 -1.7252515787957E-01  8.1091980618059E-01
145  1.4400000000000E+00 -1.6789278720386E-01  7.7008104952020E-01
146  1.4500000000000E+00 -1.6270399896521E-01  7.2471025441589E-01
147  1.4600000000000E+00 -1.5698405724792E-01  6.7508187161156E-01
148  1.4700000000000E+00 -1.5076610358635E-01  6.2155800959127E-01
149  1.4800000000000E+00 -1.4409140904762E-01  5.6458826999575E-01
150  1.4900000000000E+00 -1.3700944473243E-01  5.0470756376291E-01
151  1.5000000000000E+00 -1.2957773350192E-01  4.4253156428948E-01
152  1.5100000000000E+00 -1.2186144182464E-01  3.7874941984635E-01
153  1.5200000000000E+00 -1.1393266643225E-01  3.1411331086738E-01
154  1.5300000000000E+00 -1.0586936600040E-01  2.4942439879015E-01
155  1.5400000000000E+00 -9.7753883238737E-02  1.8551467103488E-01
156  1.5500000000000E+00 -8.9670997653902E-02  1.2322414210058E-01
157  1.5600000000000E+00 -8.1705443759181E-02  6.3372822910953E-02
158  1.5700000000000E+00 -7.3938823651979E-02  6.7268195290910E-03
159  1.5800000000000E+00 -6.6445834330123E-02 -4.6042158535654E-02
160  1.5900000000000E+00 -5.9289727785381E-02 -9.4404605895852E-02
161  1.6000000000000E+00 -5.2517013104635E-02 -1.3802802717678E-01
162  1.6100000000000E+00 -4.6151193020993E-02 -1.7684081288640E-01
163  1.6200000000000E+00 -4.0197570623919E-02 -2.1096795877402E-01
164  1.6300000000000E+00 -3.4656153780157E-02 -2.4057848257559E-01
165  1.6400000000000E+00 -2.9524927643895E-02 -2.6584776950882E-01
166  1.6500000000000E+00 -2.4799678072562E-02 -2.8696012134513E-01
167  1.6600000000000E+00 -2.0474152269691E-02 -3.0410743006267E-01
168  1.6700000000000E+00 -1.6540168057794E-02 -3.1748851095048E-01
169  1.6800000000000E+00 -1.2987730998325E-02 -3.2730839384174E-01
170  1.6900000000000E+00 -9.8051589131406E-03 -3.3377757564368E-01
171  1.7000000000000E+00 -6.9792126362285E-03 -3.3711124429023E-01
172  1.7100000000000E+00 -4.4952316348563E-03 -3.3752848543679E-01
173  1.7200000000000E+00 -2.3372763218130E-03 -3.3525144858175E-01
174  1.7300000000000E+00 -4.8827290091253E-04 -3.3050451396673E-01
175  1.7400000000000E+00  1.0698365345912E-03 -3.2351342697935E-01
176  1.7500000000000E+00  2.3559409819706E-03 -3.1450442139338E-01
177  1.7600000000000E+00  3.3896049038980E-03 -3.0370333088504E-01
178  1.7700000000000E+00  4.1909105774563E-03 -2.9133469102978E-01
179  1.7800000000000E+00  4.7802991869582E-03 -2.7762083600782E-01
180  1.7900000000000E+00  5.1784113618038E-03 -2.6278099347255E-01
181  1.8000000000000E+00  5.4059279256804E-03 -2.4703038171686E-01
182  1.8100000000000E+00  5.4834115882457E-03 -2.3057931291411E-01
183  1.8200000000000E+00  5.4311503469637E-03 -2.1363230662184E-01
184  1.8300000000000E+00  5.2690033705891E-03 -1.9638721782277E-01
185  1.8400000000000E+00  5.0162501213949E-03 -1.7903438369076E-01
186  1.8500000000000E+00  4.6914434890700E-03 -1.6175579351528E-01
187  1.8600000000000E+00  4.3122676690622E-03 -1.4472428590213E-01
188  1.8700000000000E+00  3.8954015258210E-03 -1.2810277756300E-01
189  1.8800000000000E+00  3.4563907144588E-03 -1.1204354705507E-01
190  1.8900000000000E+00  3.0095007500830E-03 -9.6687365261947E-02
191  1.9000000000000E+00  2.5676807907697E-03 -8.2163430128901E-02
192  1.9100000000000E+00  2.1422616199075E-03 -6.8587359215950E-02
193  1.9200000000000E+00  1.7405550235049E-03 -5.6043254202542E-02
194  1.9300000000000E+00  1.3682745213745E-03 -4.4601808769017E-02
195  1.9400000000000E+00  1.0338947089462E-03 -3.4353308509796E-02
196  1.9500000000000E+00  7.4353956202374E-04 -2.5369920253632E-02
197  1.9600000000000E+00  5.0127334456988E-04 -1.7707879785431E-02
198  1.9700000000000E+00  3.0898269253136E-04 -1.1406661210144E-02
199  1.9800000000000E+00  1.6639236619368E-04 -6.4908387166344E-03
200  1.9900000000000E+00  7.0735123160081E-05 -2.9523948105033E-03
201  2.0000000000000E+00  1.7952478594193E-05 -8.1648119105564E-04
202  2.0100000000000E+00  5.4899235373889E-07 -2.7982817283602E-05
203  2.0200000000000E+00 -4.8214128563406E-07  2.5537673449543E-05
204  2.0300000000000E+00  2.7064112692174E-07 -1.3220442313402E-05
205  2.04 -0.  0.
206  2.05 -0.  0.
207  2.06  0.  0.
208  2.07  0.  0.
209  2.08  0.  0.
210  2.09  0.  0.
211  2.10  0.  0.
212  2.11  0.  0.
213  2.12  0.  0.
214  2.13  0.  0.
215  2.14  0.  0.
216  2.15  0.  0.
217  2.16  0.  0.
218  2.17  0.  0.
219  2.18  0.  0.
220  2.19  0.  0.
221  2.20  0.  0.
222  2.21  0.  0.
223  2.22  0.  0.
224  2.23  0.  0.
225  2.24  0.  0.
226  2.25  0.  0.
227  2.26  0.  0.
228  2.27  0.  0.
229  2.28  0.  0.
230  2.29  0.  0.
231  2.30  0.  0.
232  2.31  0.  0.
233  2.32  0.  0.
234  2.33  0.  0.
235  2.34  0.  0.
236  2.35  0.  0.
237  2.36  0.  0.
238  2.37  0.  0.
239  2.38  0.  0.
240  2.39  0.  0.
241  2.40  0.  0.
242  2.41  0.  0.
243  2.42  0.  0.
244  2.43  0.  0.
245  2.44  0.  0.
246  2.45  0.  0.
247  2.46  0.  0.
248  2.47  0.  0.
249  2.48  0.  0.
250  2.49  0.  0.
251  2.50  0.  0.
252  2.51  0.  0.
253  2.52  0.  0.
254  2.53  0.  0.
255  2.54  0.  0.
256  2.55  0.  0.
257  2.56  0.  0.
258  2.57  0.  0.
259  2.58  0.  0.
260  2.59  0.  0.
261  2.60  0.  0.
262  2.61  0.  0.
263  2.62  0.  0.
264  2.63  0.  0.
265  2.64  0.  0.
266  2.65  0.  0.
267  2.66  0.  0.
268  2.67  0.  0.
269  2.68  0.  0.
270  2.69  0.  0.
271  2.70  0.  0.
272  2.71  0.  0.
273  2.72  0.  0.
274  2.73  0.  0.
275  2.74  0.  0.
276  2.75  0.  0.
277  2.76  0.  0.
278  2.77  0.  0.
279  2.78  0.  0.
280  2.79  0.  0.
281  2.80  0.  0.
282  2.81  0.  0.
283  2.82  0.  0.
284  2.83  0.  0.
285  2.84  0.  0.
286  2.85  0.  0.
287  2.86  0.  0.
288  2.87  0.  0.
289  2.88  0.  0.
290  2.89  0.  0.
291  2.90  0.  0.
292  2.91  0.  0.
293  2.92  0.  0.
294  2.93  0.  0.
295  2.94  0.  0.
296  2.95  0.  0.
297  2.96  0.  0.
298  2.97  0.  0.
299  2.98  0.  0.
300  2.99  0.  0.
301  3.00  0.  0.
302  3.01  0.  0.
303  3.02  0.  0.
304  3.03  0.  0.
305  3.04  0.  0.
306  3.05  0.  0.
307  3.06  0.  0.
308  3.07  0.  0.
309  3.08  0.  0.
310  3.09  0.  0.
311  3.10  0.  0.
312  3.11  0.  0.
313  3.12  0.  0.
314  3.13  0.  0.
315  3.14  0.  0.
316  3.15  0.  0.
317  3.16  0.  0.
318  3.17  0.  0.
319  3.18  0.  0.
320  3.19  0.  0.
321  3.20  0.  0.
322  3.21  0.  0.
323  3.22  0.  0.
324  3.23  0.  0.
325  3.24  0.  0.
326  3.25  0.  0.
327  3.26  0.  0.
328  3.27  0.  0.
329  3.28  0.  0.
330  3.29  0.  0.
331  3.30  0.  0.
332  3.31  0.  0.
333  3.32  0.  0.
334  3.33  0.  0.
335  3.34  0.  0.
336  3.35  0.  0.
337  3.36  0.  0.
338  3.37  0.  0.
339  3.38  0.  0.
340  3.39  0.  0.
341  3.40  0.  0.
342  3.41  0.  0.
343  3.42  0.  0.
344  3.43  0.  0.
345  3.44  0.  0.
346  3.45  0.  0.
347  3.46  0.  0.
348  3.47  0.  0.
349  3.48  0.  0.
350  3.49  0.  0.
351  3.50  0.  0.
352  3.51  0.  0.
353  3.52  0.  0.
354  3.53  0.  0.
355  3.54  0.  0.
356  3.55  0.  0.
357  3.56  0.  0.
358  3.57  0.  0.
359  3.58  0.  0.
360  3.59  0.  0.
361  3.60  0.  0.
362  3.61  0.  0.
363  3.62  0.  0.
364  3.63  0.  0.
365  3.64  0.  0.
366  3.65  0.  0.
367  3.66  0.  0.
368  3.67  0.  0.
369  3.68  0.  0.
370  3.69  0.  0.
371  3.70  0.  0.
372  3.71  0.  0.
373  3.72  0.  0.
374  3.73  0.  0.
375  3.74  0.  0.
376  3.75  0.  0.
377  3.76  0.  0.
378  3.77  0.  0.
379  3.78  0.  0.
380  3.79  0.  0.
381  3.80  0.  0.
382  3.81  0.  0.
383  3.82  0.  0.
384  3.83  0.  0.
385  3.84  0.  0.
386  3.85  0.  0.
387  3.86  0.  0.
388  3.87  0.  0.
389  3.88  0.  0.
390  3.89  0.  0.
391  3.90  0.  0.
392  3.91  0.  0.
393  3.92  0.  0.
394  3.93  0.  0.
395  3.94  0.  0.
396  3.95  0.  0.
397  3.96  0.  0.
398  3.97  0.  0.
399  3.98  0.  0.
400  3.99  0.  0.
401  4.00  0.  0.
402  4.01  0.  0.
403  4.02  0.  0.
404  4.03  0.  0.
405  4.04  0.  0.
406  4.05  0.  0.
407  4.06  0.  0.
408  4.07  0.  0.
409  4.08  0.  0.
410  4.09  0.  0.
411  4.10  0.  0.
412  4.11  0.  0.
413  4.12  0.  0.
414  4.13  0.  0.
415  4.14  0.  0.
416  4.15  0.  0.
417  4.16  0.  0.
418  4.17  0.  0.
419  4.18  0.  0.
420  4.19  0.  0.
421  4.20  0.  0.
422  4.21  0.  0.
423  4.22  0.  0.
424  4.23  0.  0.
425  4.24  0.  0.
426  4.25  0.  0.
427  4.26  0.  0.
428  4.27  0.  0.
429  4.28  0.  0.
430  4.29  0.  0.
431  4.30  0.  0.
432  4.31  0.  0.
433  4.32  0.  0.
434  4.33  0.  0.
435  4.34  0.  0.
436  4.35  0.  0.
437  4.36  0.  0.
438  4.37  0.  0.
439  4.38  0.  0.
440  4.39  0.  0.
441  4.40  0.  0.
442  4.41  0.  0.
443  4.42  0.  0.
444  4.43  0.  0.
445  4.44  0.  0.
446  4.45  0.  0.
447  4.46  0.  0.
448  4.47  0.  0.
449  4.48  0.  0.
450  4.49  0.  0.
451  4.50  0.  0.
452  4.51  0.  0.
453  4.52  0.  0.
454  4.53  0.  0.
455  4.54  0.  0.
456  4.55  0.  0.
457  4.56  0.  0.
458  4.57  0.  0.
459  4.58  0.  0.
460  4.59  0.  0.
461  4.60  0.  0.
462  4.61  0.  0.
463  4.62  0.  0.
464  4.63  0.  0.
465  4.64  0.  0.
466  4.65  0.  0.
467  4.66  0.  0.
468  4.67  0.  0.
469  4.68  0.  0.
470  4.69  0.  0.
471  4.70  0.  0.
472  4.71  0.  0.
473  4.72  0.  0.
474  4.73  0.  0.
475  4.74  0.  0.
476  4.75  0.  0.
477  4.76  0.  0.
478  4.77  0.  0.
479  4.78  0.  0.
480  4.79  0.  0.
481  4.80  0.  0.
482  4.81  0.  0.
483  4.82  0.  0.
484  4.83  0.  0.
485  4.84  0.  0.
486  4.85  0.  0.
487  4.86  0.  0.
488  4.87  0.  0.
489  4.88  0.  0.
490  4.89  0.  0.
491  4.90  0.  0.
492  4.91  0.  0.
493  4.92  0.  0.
494  4.93  0.  0.
495  4.94  0.  0.
496  4.95  0.  0.
497  4.96  0.  0.
498  4.97  0.  0.
499  4.98  0.  0.
500  4.99  0.  0.
501  5.00  0.  0.
502  5.01  0.  0.
503  5.02  0.  0.
504  5.03  0.  0.
505  5.04  0.  0.
506  5.05  0.  0.
507  5.06  0.  0.
508  5.07  0.  0.
509  5.08  0.  0.
510  5.09  0.  0.
511  5.10  0.  0.
512  5.11  0.  0.
513  5.12  0.  0.
514  5.13  0.  0.
515  5.14  0.  0.
516  5.15  0.  0.
517  5.16  0.  0.
518  5.17  0.  0.
519  5.18  0.  0.
520  5.19  0.  0.
521  5.20  0.  0.
522  5.21  0.  0.
523  5.22  0.  0.
524  5.23  0.  0.
525  5.24  0.  0.
526  5.25  0.  0.
527  5.26  0.  0.
528  5.27  0.  0.
529  5.28  0.  0.
530  5.29  0.  0.
531  5.30  0.  0.
532  5.31  0.  0.
533  5.32  0.  0.
534  5.33  0.  0.
535  5.34  0.  0.
536  5.35  0.  0.
537  5.36  0.  0.
538  5.37  0.  0.
539  5.38  0.  0.
540  5.39  0.  0.
541  5.40  0.  0.
542  5.41  0.  0.
543  5.42  0.  0.
544  5.43  0.  0.
545  5.44  0.  0.
546  5.45  0.  0.
547  5.46  0.  0.
548  5.47  0.  0.
549  5.48  0.  0.
550  5.49  0.  0.
551  5.50  0.  0.
552  5.51  0.  0.
553  5.52  0.  0.
554  5.53  0.  0.
555  5.54  0.  0.
556  5.55  0.  0.
557  5.56  0.  0.
558  5.57  0.  0.
559  5.58  0.  0.
560  5.59  0.  0.
561  5.60  0.  0.
562  5.61  0.  0.
563  5.62  0.  0.
564  5.63  0.  0.
565  5.64  0.  0.
566  5.65  0.  0.
567  5.66  0.  0.
568  5.67  0.  0.
569  5.68  0.  0.
570  5.69  0.  0.
571  5.70  0.  0.
572  5.71  0.  0.
573  5.72  0.  0.
574  5.73  0.  0.
575  5.74  0.  0.
576  5.75  0.  0.
577  5.76  0.  0.
578  5.77  0.  0.
579  5.78  0.  0.
580  5.79  0.  0.
581  5.80  0.  0.
582  5.81  0.  0.
583  5.82  0.  0.
584  5.83  0.  0.
585  5.84  0.  0.
586  5.85  0.  0.
587  5.86  0.  0.
588  5.87  0.  0.
589  5.88  0.  0.
590  5.89  0.  0.
591  5.90  0.  0.
592  5.91  0.  0.
593  5.92  0.  0.
594  5.93  0.  0.
595  5.94  0.  0.
596  5.95  0.  0.
597  5.96  0.  0.
598  5.97  0.  0.
599  5.98  0.  0.
600  5.99  0.  0.
1                         5.6847253742304E+00  7.5327251206473E-01
1  0.0000000000000E+00  5.0127209327844E-10 -1.1260090207466E-08
2  1.0000000000000E-02  1.0855130892025E-03  9.7943003774038E-04
3  2.0000000000000E-02  4.3385332334683E-03  3.9233826560812E-03
4  3.0000000000000E-02  9.7485237040529E-03  8.8485608716547E-03
5  4.0000000000000E-02  1.7297991795117E-02  1.5781861427845E-02
6  5.0000000000000E-02  2.6962590558301E-02  2.4758985717739E-02
7  6.0000000000000E-02  3.8711259194619E-02  3.5822541279856E-02
8  7.0000000000000E-02  5.2506400114870E-02  4.9019678922359E-02
9  8.0000000000000E-02  6.8304090178467E-02  6.4399321791480E-02
10  9.0000000000000E-02  8.6054323167857E-02  8.2009052792366E-02
11  1.0000000000000E-01  1.0570128016008E-01  1.0189173548584E-01
12  1.1000000000000E-01  1.2718362412634E-01  1.2408195073656E-01
13  1.2000000000000E-01  1.5043481483094E-01  1.4860233682472E-01
14  1.3000000000000E-01  1.7538343991769E-01  1.7545992433375E-01
15  1.4000000000000E-01  2.0195355796811E-01  2.0464255880770E-01
16  1.5000000000000E-01  2.3006504929364E-01  2.3611550388956E-01
17  1.6000000000000E-01  2.5963397028355E-01  2.6981831539709E-01
18  1.7000000000000E-01  2.9057290726998E-01  3.0566207260310E-01
19  1.8000000000000E-01  3.2279132608872E-01  3.4352704692910E-01
20  1.9000000000000E-01  3.5619591380409E-01  3.8326088045015E-01
21  2.0000000000000E-01  3.9069090942284E-01  4.2467733718464E-01
22  2.1000000000000E-01  4.2617842083752E-01  4.6755567928745E-01
23  2.2000000000000E-01  4.6255872570639E-01  5.1164070818315E-01
24  2.3000000000000E-01  4.9973055448398E-01  5.5664349760355E-01
25  2.4000000000000E-01  5.3759135435424E-01  6.0224283168269E-01
26  2.5000000000000E-01  5.7603753337494E-01  6.4808734698531E-01
27  2.6000000000000E-01  6.1496468470629E-01  6.9379836288253E-01
28  2.7000000000000E-01  6.5426779135661E-01  7.3897337032946E-01
29  2.8000000000000E-01  6.9384141242161E-01  7.8319013513054E-01
30  2.9000000000000E-01  7.3357985230913E-01  8.2601135848296E-01
31  3.0000000000000E-01  7.7337731491836E-01  8.6698982523775E-01
32  3.1000000000000E-01  8.1312804516884E-01  9.0567395916544E-01
33  3.2000000000000E-01  8.5272646064341E-01  9.4161369479501E-01
34  3.3000000000000E-01  8.9206727640895E-01  9.7436656731577E-01
35  3.4000000000000E-01  9.3104562630536E-01  1.0035039157704E+00
36  3.5000000000000E-01  9.6955718413832E-01  1.0286170904662E+00
37  3.6000000000000E-01  1.0074982882729E+00  1.0493235532976E+00
38  3.7000000000000E-01  1.0447660730993E+00  1.0652727595697E+00
39  3.8000000000000E-01  1.0812586107279E+00  1.0761517119711E+00
40  3.9000000000000E-01  1.1168750660731E+00  1.0816900815414E+00
41  4.0000000000000E-01  1.1515158681975E+00  1.0816647967642E+00
42  4.1000000000000E-01  1.1850829004306E+00  1.0759040101815E+00
43  4.2000000000000E-01  1.2174797113332E+00  1.0642903620448E+00
44  4.3000000000000E-01  1.2486117480829E+00  1.0467634722988E+00
45  4.4000000000000E-01  1.2783866132950E+00  1.0233216054448E+00
46  4.5000000000000E-01  1.3067143456878E+00  9.9402246729478E-01
47  4.6000000000000E-01  1.3335077243670E+00  9.5898310805165E-01
48  4.7000000000000E-01  1.3586825958388E+00  9.1837892224092E-01
49  4.8000000000000E-01  1.3821582221941E+00  8.7244175247206E-01
50  4.9000000000000E-01  1.4038576482396E+00  8.2145712051822E-01
51  5.0000000000000E-01  1.4237080847046E+00  7.6576062544236E-01
52  5.1000000000000E-01  1.4416413040325E+00  7.0573356416357E-01
53  5.2000000000000E-01  1.4575940446989E+00  6.4179784463302E-01
54  5.3000000000000E-01  1.4715084194739E+00  5.7441027538848E-01
55  5.4000000000000E-01  1.4833323226069E+00  5.0405632740396E-01
56  5.5000000000000E-01  1.4930198305340E+00  4.3124347459872E-01
57  5.6000000000000E-01  1.5005315904312E+00  3.5649422790448E-01
58  5.7000000000000E-01  1.5058351907475E+00  2.8033898422333E-01
59  5.8000000000000E-01  1.5089055077643E+00  2.0330881580257E-01
60  5.9000000000000E-01  1.5097250222482E+00  1.2592832740199E-01
61  6.0000000000000E-01  1.5082841003892E+00  4.8708708076398E-02
62  6.1000000000000E-01  1.5045812334488E+00 -2.7858898569281E-02
63  6.2000000000000E-01  1.4986232308836E+00 -1.0330958714188E-01
64  6.3000000000000E-01  1.4904253621490E+00 -1.7721033537313E-01
65  6.4000000000000E-01  1.4800114429257E+00 -2.4916500013801E-01
66  6.5000000000000E-01  1.4674138621364E+00 -3.1881857535866E-01
67  6.6000000000000E-01  1.4526735468263E+00 -3.8586063619586E-01
68  6.7000000000000E-01  1.4358398627528E+00 -4.5002790910645E-01
69  6.8000000000000E-01  1.4169704493598E+00 -5.1110592379406E-01
70  6.9000000000000E-01  1.3961309886820E+00 -5.6892972050107E-01
71  7.0000000000000E-01  1.3733949086264E+00 -6.2338360415304E-01
72  7.1000000000000E-01  1.3488430219873E+00 -6.7439995523387E-01
73  7.2000000000000E-01  1.3225631034617E+00 -7.2195712558570E-01
74  7.3000000000000E-01  1.2946494078236E+00 -7.6607646524424E-01
75  7.4000000000000E-01  1.2652021332679E+00 -8.0681854358269E-01
76  7.5000000000000E-01  1.2343268347470E+00 -8.4427864411320E-01
77  7.6000000000000E-01  1.2021337928605E+00 -8.7858162696122E-01
78  7.7000000000000E-01  1.1687373445276E+00 -9.0987626598724E-01
79  7.8000000000000E-01  1.1342551822481E+00 -9.3832917852234E-01
80  7.9000000000000E-01  1.0988076292316E+00 -9.6411847447069E-01
81  8.0000000000000E-01  1.0625168980444E+00 -9.8742725792922E-01
82  8.1000000000000E-01  1.0255063406750E+00 -1.0084371183338E+00
83  8.2000000000000E-01  9.8789969804642E-01 -1.0273217493621E+00
84  8.3000000000000E-01  9.4982035701536E-01 -1.0442408323638E+00
85  8.4000000000000E-01  9.1139062277417E-01 -1.0593343169403E+00
86  8.5000000000000E-01  8.7273101433593E-01 -1.0727172245292E+00
87  8.6000000000000E-01  8.3395959041961E-01 -1.0844750915485E+00
88  8.7000000000000E-01  7.9519131258044E-01 -1.0946601569996E+00
89  8.8000000000000E-01  7.5653745185174E-01 -1.1032883855973E+00
90  8.9000000000000E-01  7.1810504449138E-01 -1.1103374017507E+00
91  9.0000000000000E-01  6.7999640166829E-01 -1.1157453923368E+00
92  9.1000000000000E-01  6.4230867709783E-01 -1.1194110175100E+00
93  9.2000000000000E-01  6.0513349575120E-01 -1.1211943491227E+00
94  9.3000000000000E-01  5.6855664584106E-01 -1.1209188360606E+00
95  9.4000000000000E-01  5.3265783533824E-01 -1.1183742753084E+00
96  9.5000000000000E-01  4.9751051332000E-01 -1.1133207472397E+00
97  9.6000000000000E-01  4.6318175550551E-01 -1.1054934538692E+00
98  9.7000000000000E-01  4.2973221241551E-01 -1.0946083799884E+00
99  9.8000000000000E-01  3.9721611771680E-01 -1.0803686796001E+00
100  9.9000000000000E-01  3.6568135349352E-01 -1.0624716742167E+00
101  1.0000000000000E+00  3.3516956844015E-01 -1.0406163357081E+00
102  1.0100000000000E+00  3.0571634430842E-01 -1.0145111147541E+00
103  1.0200000000000E+00  2.7735140537330E-01 -9.8388196681537E-01
104  1.0300000000000E+00  2.5009886522123E-01 -9.4848042108255E-01
105  1.0400000000000E+00  2.2397750481338E-01 -9.0809153422863E-01
106  1.0500000000000E+00  1.9900107554360E-01 -8.6254157007715E-01
107  1.0600000000000E+00  1.7517862089779E-01 -8.1170524853392E-01
108  1.0700000000000E+00  1.5251481032838E-01 -7.5551241229517E-01
109  1.0800000000000E+00  1.3101027908348E-01 -6.9395396787612E-01
110  1.0900000000000E+00  1.1066196796981E-01 -6.2708696822764E-01
111  1.1000000000000E+00  9.1463457377530E-02 -5.5503871752862E-01
112  1.1100000000000E+00  7.3405290341107E-02 -4.7800979429140E-01
113  1.1200000000000E+00  5.6475279948853E-02 -3.9627590659417E-01
114  1.1300000000000E+00  4.0658797025918E-02 -3.1018851254722E-01
115  1.1400000000000E+00  2.5939034694651E-02 -2.2017415986376E-01
116  1.1500000000000E+00  1.2297247140864E-02 -1.2673252005998E-01
117  1.1600000000000E+00 -2.8703932380993E-04 -3.0433115175410E-02
118  1.1700000000000E+00 -1.1835844039134E-02  6.8089242664750E-02
119  1.1800000000000E+00 -2.2372578968390E-02  1.6814025614569E-01
120  1.1900000000000E+00 -3.1921924463221E-02  2.6897312785502E-01
121  1.2000000000000E+00 -4.0509732685730E-02  3.6979664053327E-01
122  1.2100000000000E+00 -4.8162956873781E-02  4.6978422826468E-01
123  1.2200000000000E+00 -5.4909604012960E-02  5.6808391677155E-01
124  1.2300000000000E+00 -6.0778707933660E-02  6.6382899547095E-01
125  1.2400000000000E+00 -6.5800319393157E-02  7.5614927075882E-01
126  1.2500000000000E+00 -7.0005509337653E-02  8.4418273924566E-01
127  1.2600000000000E+00 -7.3426381280876E-02  9.2708751171143E-01
128  1.2700000000000E+00 -7.6096088584500E-02  1.0040538133373E+00
129  1.2800000000000E+00 -7.8048852388142E-02  1.0743158834643E+00
130  1.2900000000000E+00 -7.9319976012264E-02  1.1371635986870E+00
131  1.3000000000000E+00 -7.9945851844736E-02  1.1919536464501E+00
132  1.3100000000000E+00 -7.9963957018823E-02  1.2381200823928E+00
133  1.3200000000000E+00 -7.9412834588532E-02  1.2751841132623E+00