Eu    ONCVPSP-4.0.1  r_core=   2.01108   1.60216   1.90567   1.60216
63.0000     17.0000      250626    zatom,zion,pspd
8      11   3     4   600     0    pspcod,pspxc,lmax,lloc,mmax,r2well
5.99000000 15.90000000  0.00000000    rchrg fchrg qchrg
2     2     2     2     0    nproj
1     1           extension_switch
0                         6.7714221210983E+00  5.1115065862782E-01
1  0.0000000000000E+00  8.2350903873873E-11 -3.4790324787703E-10
2  1.0000000000000E-02  4.0683041797046E-02 -3.5375297701468E-03
3  2.0000000000000E-02  8.1345776622032E-02 -7.1182156686650E-03
4  3.0000000000000E-02  1.2196771846826E-01 -1.0784466311087E-02
5  4.0000000000000E-02  1.6252802541557E-01 -1.4577203794332E-02
6  5.0000000000000E-02  2.0300532704191E-01 -1.8535141615851E-02
7  6.0000000000000E-02  2.4337755821823E-01 -2.2694087758083E-02
8  7.0000000000000E-02  2.8362180131680E-01 -2.7086280914493E-02
9  8.0000000000000E-02  3.2371413878089E-01 -3.1739767485566E-02
10  9.0000000000000E-02  3.6362951790237E-01 -3.6677826544703E-02
11  1.0000000000000E-01  4.0334162953396E-01 -4.1918449469425E-02
12  1.1000000000000E-01  4.4282280232628E-01 -4.7473880357525E-02
13  1.2000000000000E-01  4.8204391392752E-01 -5.3350222706826E-02
14  1.3000000000000E-01  5.2097432041678E-01 -5.9547117137200E-02
15  1.4000000000000E-01  5.5958180506287E-01 -6.6057494181468E-02
16  1.5000000000000E-01  5.9783254730974E-01 -7.2867405375645E-02
17  1.6000000000000E-01  6.3569111269058E-01 -7.9955935046360E-02
18  1.7000000000000E-01  6.7312046416523E-01 -8.7295194332676E-02
19  1.8000000000000E-01  7.1008199516381E-01 -9.4850398099831E-02
20  1.9000000000000E-01  7.4653558440383E-01 -1.0258002451258E-01
21  2.0000000000000E-01  7.8243967233143E-01 -1.1043605614454E-01
22  2.1000000000000E-01  8.1775135882150E-01 -1.1836430061674E-01
23  2.2000000000000E-01  8.5242652155872E-01 -1.2630478789269E-01
24  2.3000000000000E-01  8.8641995431342E-01 -1.3419224051689E-01
25  2.4000000000000E-01  9.1968552412559E-01 -1.4195661227869E-01
26  2.5000000000000E-01  9.5217634621807E-01 -1.4952369002093E-01
27  2.6000000000000E-01  9.8384497527903E-01 -1.5681575260236E-01
28  2.7000000000000E-01  1.0146436115853E+00 -1.6375228037041E-01
29  2.8000000000000E-01  1.0445243202838E+00 -1.7025070791495E-01
30  2.9000000000000E-01  1.0734392620089E+00 -1.7622721235964E-01
31  3.0000000000000E-01  1.1013409328943E+00 -1.8159752901171E-01
32  3.1000000000000E-01  1.1281824119322E+00 -1.8627778583800E-01
33  3.2000000000000E-01  1.1539176135504E+00 -1.9018534796902E-01
34  3.3000000000000E-01  1.1785015432144E+00 -1.9323966325784E-01
35  3.4000000000000E-01  1.2018905538185E+00 -1.9536309983739E-01
36  3.5000000000000E-01  1.2240426006087E+00 -1.9648176663211E-01
37  3.6000000000000E-01  1.2449174923811E+00 -1.9652630788608E-01
38  3.7000000000000E-01  1.2644771367207E+00 -1.9543266297061E-01
39  3.8000000000000E-01  1.2826857770899E+00 -1.9314278302904E-01
40  3.9000000000000E-01  1.2995102196392E+00 -1.8960529640022E-01
41  4.0000000000000E-01  1.3149200477004E+00 -1.8477611523538E-01
42  4.1000000000000E-01  1.3288878220235E+00 -1.7861897627778E-01
43  4.2000000000000E-01  1.3413892649466E+00 -1.7110590940811E-01
44  4.3000000000000E-01  1.3524034268254E+00 -1.6221762826482E-01
45  4.4000000000000E-01  1.3619128332091E+00 -1.5194383801887E-01
46  4.5000000000000E-01  1.3699036114201E+00 -1.4028345621209E-01
47  4.6000000000000E-01  1.3763655953807E+00 -1.2724474344725E-01
48  4.7000000000000E-01  1.3812924077261E+00 -1.1284534163773E-01
49  4.8000000000000E-01  1.3846815184496E+00 -9.7112218477238E-02
50  4.9000000000000E-01  1.3865342795377E+00 -8.0081517764164E-02
51  5.0000000000000E-01  1.3868559352718E+00 -6.1798316202025E-02
52  5.1000000000000E-01  1.3856556080949E+00 -4.2316288287065E-02
53  5.2000000000000E-01  1.3829462601629E+00 -2.1697281874255E-02
54  5.3000000000000E-01  1.3787446309219E+00 -1.0807976980477E-05
55  5.4000000000000E-01  1.3730711512691E+00  2.2666550711057E-02
56  5.5000000000000E-01  1.3659498350683E+00  4.6251807186007E-02
57  5.6000000000000E-01  1.3574081489921E+00  7.0656307163743E-02
58  5.7000000000000E-01  1.3474768618603E+00  9.5786528745080E-02
59  5.8000000000000E-01  1.3361898748220E+00  1.2154493696868E-01
60  5.9000000000000E-01  1.3235840339012E+00  1.4783088485240E-01
61  6.0000000000000E-01  1.3096989265767E+00  1.7454155195566E-01
62  6.1000000000000E-01  1.2945766642045E+00  2.0157291101430E-01
63  6.2000000000000E-01  1.2782616522083E+00  2.2882071281246E-01
64  6.3000000000000E-01  1.2608003500634E+00  2.5618147916761E-01
65  6.4000000000000E-01  1.2422410231781E+00  2.8355349371915E-01
66  6.5000000000000E-01  1.2226334888340E+00  3.1083778013024E-01
67  6.6000000000000E-01  1.2020288583820E+00  3.3793905733842E-01
68  6.7000000000000E-01  1.1804792779071E+00  3.6476666162414E-01
69  6.8000000000000E-01  1.1580376695660E+00  3.9123542550601E-01
70  6.9000000000000E-01  1.1347574757724E+00  4.1726650381703E-01
71  7.0000000000000E-01  1.1106924083555E+00  4.4278813776266E-01
72  7.1000000000000E-01  1.0858962047450E+00  4.6773634830647E-01
73  7.2000000000000E-01  1.0604223931454E+00  4.9205555086754E-01
74  7.3000000000000E-01  1.0343240685531E+00  5.1569908403807E-01
75  7.4000000000000E-01  1.0076536813430E+00  5.3862964583436E-01
76  7.5000000000000E-01  9.8046284000692E-01  5.6081963187107E-01
77  7.6000000000000E-01  9.5280212947205E-01  5.8225137078780E-01
78  7.7000000000000E-01  9.2472094625385E-01  6.0291725325039E-01
79  7.8000000000000E-01  8.9626735152136E-01  6.2281975188644E-01
80  7.9000000000000E-01  8.6748794296111E-01  6.4197133058336E-01
81  8.0000000000000E-01  8.3842774613189E-01  6.6039424267110E-01
82  8.1000000000000E-01  8.0913012580207E-01  6.7812021861223E-01
83  8.2000000000000E-01  7.7963671755946E-01  6.9519004492685E-01
84  8.3000000000000E-01  7.4998737978147E-01  7.1165303716923E-01
85  8.4000000000000E-01  7.2022016585337E-01  7.2756641084238E-01
86  8.5000000000000E-01  6.9037131632685E-01  7.4299455517127E-01
87  8.6000000000000E-01  6.6047527052137E-01  7.5800821564623E-01
88  8.7000000000000E-01  6.3056469688965E-01  7.7268359218556E-01
89  8.8000000000000E-01  6.0067054129674E-01  7.8710136064092E-01
90  8.9000000000000E-01  5.7082209220261E-01  8.0134562617139E-01
91  9.0000000000000E-01  5.4104706159051E-01  8.1550281773712E-01
92  9.1000000000000E-01  5.1137168035107E-01  8.2966053360191E-01
93  9.2000000000000E-01  4.8182080671377E-01  8.4390634828205E-01
94  9.3000000000000E-01  4.5241804621600E-01  8.5832659183191E-01
95  9.4000000000000E-01  4.2318588161469E-01  8.7300511271108E-01
96  9.5000000000000E-01  3.9414581107708E-01  8.8802203573141E-01
97  9.6000000000000E-01  3.6531849293588E-01  9.0345252673633E-01
98  9.7000000000000E-01  3.3672389525962E-01  9.1936557571558E-01
99  9.8000000000000E-01  3.0838144847065E-01  9.3582281001290E-01
100  9.9000000000000E-01  2.8031019924113E-01  9.5287734913997E-01
101  1.0000000000000E+00  2.5252896390979E-01  9.7057271247461E-01
102  1.0100000000000E+00  2.2505647968899E-01  9.8894179079807E-01
103  1.0200000000000E+00  1.9791155197063E-01  1.0080058922208E+00
104  1.0300000000000E+00  1.7111319609045E-01  1.0277738725657E+00
105  1.0400000000000E+00  1.4468077197065E-01  1.0482413597304E+00
106  1.0500000000000E+00  1.1863411012978E-01  1.0693900809400E+00
107  1.0600000000000E+00  9.2993627624516E-02  1.0911873011425E+00
108  1.0700000000000E+00  6.7780432568779E-02  1.1135853800952E+00
109  1.0800000000000E+00  4.3016415959946E-02  1.1365214549473E+00
110  1.0900000000000E+00  1.8724329627954E-02  1.1599172543634E+00
111  1.1000000000000E+00 -5.0721507899424E-03  1.1836790494383E+00
112  1.1100000000000E+00 -2.8348378860584E-02  1.2076977458636E+00
113  1.1200000000000E+00 -5.1078707280141E-02  1.2318491209946E+00
114  1.1300000000000E+00 -7.3236475560409E-02  1.2559942086706E+00
115  1.1400000000000E+00 -9.4794016245841E-02  1.2799798338353E+00
116  1.1500000000000E+00 -1.1572268035820E-01  1.3036392982194E+00
117  1.1600000000000E+00 -1.3599288269636E-01  1.3267932175612E+00
118  1.1700000000000E+00 -1.5557416755388E-01  1.3492505100759E+00
119  1.1800000000000E+00 -1.7443529535460E-01  1.3708095351161E+00
120  1.1900000000000E+00 -1.9254435064696E-01  1.3912593802165E+00
121  1.2000000000000E+00 -2.0986887183792E-01  1.4103812939519E+00
122  1.2100000000000E+00 -2.2637600298751E-01  1.4279502612848E+00
123  1.2200000000000E+00 -2.4203266791983E-01  1.4437367172915E+00
124  1.2300000000000E+00 -2.5680576683673E-01  1.4575083943557E+00
125  1.2400000000000E+00 -2.7066239553921E-01  1.4690322970744E+00
126  1.2500000000000E+00 -2.8357008726814E-01  1.4780767982141E+00
127  1.2600000000000E+00 -2.9549707706482E-01  1.4844138480882E+00
128  1.2700000000000E+00 -3.0641258841826E-01  1.4878212886584E+00
129  1.2800000000000E+00 -3.1628714180554E-01  1.4880852624793E+00
130  1.2900000000000E+00 -3.2509288453938E-01  1.4850027052970E+00
131  1.3000000000000E+00 -3.3280394110554E-01  1.4783839096275E+00
132  1.3100000000000E+00 -3.3939678289761E-01  1.4680551449791E+00
133  1.3200000000000E+00 -3.4485061593100E-01  1.4538613184945E+00
134  1.3300000000000E+00 -3.4914778473560E-01  1.4356686576703E+00
135  1.3400000000000E+00 -3.5227419017807E-01  1.4133673943924E+00
136  1.3500000000000E+00 -3.5421971844653E-01  1.3868744268163E+00
137  1.3600000000000E+00 -3.5497867783318E-01  1.3561359325647E+00
138  1.3700000000000E+00 -3.5455023926630E-01  1.3211299032738E+00
139  1.3800000000000E+00 -3.5293887576318E-01  1.2818685666693E+00
140  1.3900000000000E+00 -3.5015479509606E-01  1.2384006580522E+00
141  1.4000000000000E+00 -3.4621435896993E-01  1.1908134982804E+00
142  1.4100000000000E+00 -3.4114048090417E-01  1.1392348300318E+00
143  1.4200000000000E+00 -3.3496299376623E-01  1.0838343582221E+00
144  1.4300000000000E+00 -3.2771897653559E-01  1.0248249339772E+00
145  1.4400000000000E+00 -3.1945302835531E-01  9.6246331441190E-01
146  1.4500000000000E+00 -3.1021747625018E-01  8.9705042260355E-01
147  1.4600000000000E+00 -3.0007250106280E-01  8.2893102362081E-01
148  1.4700000000000E+00 -2.8908616413353E-01  7.5849272303303E-01
149  1.4800000000000E+00 -2.7733431506353E-01  6.8616418416510E-01
150  1.4900000000000E+00 -2.6490035850689E-01  6.1241244925254E-01
151  1.5000000000000E+00 -2.5187485534286E-01  5.3773923761936E-01
152  1.5100000000000E+00 -2.3835493076811E-01  4.6267608097384E-01
153  1.5200000000000E+00 -2.2444345880238E-01  3.8777814180050E-01
154  1.5300000000000E+00 -2.1024798943483E-01  3.1361654569371E-01
155  1.5400000000000E+00 -1.9587938108435E-01  2.4076904200520E-01
156  1.5500000000000E+00 -1.8145009725657E-01  1.6980878959985E-01
157  1.5600000000000E+00 -1.6707212219195E-01  1.0129104554306E-01
158  1.5700000000000E+00 -1.5285444591794E-01  3.5737514193597E-02
159  1.5800000000000E+00 -1.3890006283308E-01 -2.6381918635458E-02
160  1.5900000000000E+00 -1.2530242584050E-01 -8.4670343370355E-02
161  1.6000000000000E+00 -1.1214136071111E-01 -1.3882772096324E-01
162  1.6100000000000E+00 -9.9478294191356E-02 -1.8867834562330E-01
163  1.6200000000000E+00 -8.7359093677135E-02 -2.3414498723679E-01
164  1.6300000000000E+00 -7.5822588801492E-02 -2.7518646688782E-01
165  1.6400000000000E+00 -6.4902580980670E-02 -3.1178292862980E-01
166  1.6500000000000E+00 -5.4627523943543E-02 -3.4393764922714E-01
167  1.6600000000000E+00 -4.5020469198899E-02 -3.7167707150636E-01
168  1.6700000000000E+00 -3.6099012057636E-02 -3.9505093950435E-01
169  1.6800000000000E+00 -2.7875279643942E-02 -4.1413223950872E-01
170  1.6900000000000E+00 -2.0355961359071E-02 -4.2901694556965E-01
171  1.7000000000000E+00 -1.3542381257960E-02 -4.3982357341345E-01
172  1.7100000000000E+00 -7.4306119034676E-03 -4.4669254495887E-01
173  1.7200000000000E+00 -2.0116298524133E-03 -4.4978536129718E-01
174  1.7300000000000E+00  2.7284904192734E-03 -4.4928360256713E-01
175  1.7400000000000E+00  6.8083423562072E-03 -4.4538774098519E-01
176  1.7500000000000E+00  1.0250917485457E-02 -4.3831579291200E-01
177  1.7600000000000E+00  1.3083300700108E-02 -4.2830181150462E-01
178  1.7700000000000E+00  1.5336333220716E-02 -4.1559423208530E-01
179  1.7800000000000E+00  1.7044246135270E-02 -4.0045408404115E-01
180  1.7900000000000E+00  1.8244267433207E-02 -3.8315308270739E-01
181  1.8000000000000E+00  1.8976205830128E-02 -3.6397161667679E-01
182  1.8100000000000E+00  1.9282014861200E-02 -3.4319664676350E-01
183  1.8200000000000E+00  1.9205340933495E-02 -3.2111953387003E-01
184  1.8300000000000E+00  1.8791059190855E-02 -2.9803381377566E-01
185  1.8400000000000E+00  1.8084801166963E-02 -2.7423293743052E-01
186  1.8500000000000E+00  1.7132478308148E-02 -2.5000799585493E-01
187  1.8600000000000E+00  1.5979805481049E-02 -2.2564544887702E-01
188  1.8700000000000E+00  1.4671828616716E-02 -2.0142487713784E-01
189  1.8800000000000E+00  1.3252462489433E-02 -1.7761678366326E-01
190  1.8900000000000E+00  1.1764021870677E-02 -1.5448038703477E-01
191  1.9000000000000E+00  1.0246844382150E-02 -1.3226176933111E-01
192  1.9100000000000E+00  8.7387332962849E-03 -1.1119140911034E-01
193  1.9200000000000E+00  7.2728840100078E-03 -9.1475985778498E-02
194  1.9300000000000E+00  5.8793544567558E-03 -7.3303395119611E-02
195  1.9400000000000E+00  4.5879758305061E-03 -5.6853372029946E-02
196  1.9500000000000E+00  3.4243679486621E-03 -4.2282577143661E-02
197  1.9600000000000E+00  2.4099305922489E-03 -2.9724249599149E-02
198  1.9700000000000E+00  1.5615690912731E-03 -1.9286946438747E-02
199  1.9800000000000E+00  8.9178534454194E-04 -1.1057122862356E-02
200  1.9900000000000E+00  4.0614918194611E-04 -5.0676343618819E-03
201  2.0000000000000E+00  1.1219497931484E-04 -1.4126655452925E-03
202  2.0100000000000E+00  3.8375278146557E-06 -4.8884265526271E-05
203  2.0200000000000E+00 -3.4971610480822E-06  4.4708182127314E-05
204  2.0300000000000E+00  1.8152559885081E-06 -2.3012091317138E-05
205  2.04 -0.  0.
206  2.05 -0.  0.
207  2.06  0.  0.
208  2.07  0.  0.
209  2.08  0.  0.
210  2.09  0.  0.
211  2.10  0.  0.
212  2.11  0.  0.
213  2.12  0.  0.
214  2.13  0.  0.
215  2.14  0.  0.
216  2.15  0.  0.
217  2.16  0.  0.
218  2.17  0.  0.
219  2.18  0.  0.
220  2.19  0.  0.
221  2.20  0.  0.
222  2.21  0.  0.
223  2.22  0.  0.
224  2.23  0.  0.
225  2.24  0.  0.
226  2.25  0.  0.
227  2.26  0.  0.
228  2.27  0.  0.
229  2.28  0.  0.
230  2.29  0.  0.
231  2.30  0.  0.
232  2.31  0.  0.
233  2.32  0.  0.
234  2.33  0.  0.
235  2.34  0.  0.
236  2.35  0.  0.
237  2.36  0.  0.
238  2.37  0.  0.
239  2.38  0.  0.
240  2.39  0.  0.
241  2.40  0.  0.
242  2.41  0.  0.
243  2.42  0.  0.
244  2.43  0.  0.
245  2.44  0.  0.
246  2.45  0.  0.
247  2.46  0.  0.
248  2.47  0.  0.
249  2.48  0.  0.
250  2.49  0.  0.
251  2.50  0.  0.
252  2.51  0.  0.
253  2.52  0.  0.
254  2.53  0.  0.
255  2.54  0.  0.
256  2.55  0.  0.
257  2.56  0.  0.
258  2.57  0.  0.
259  2.58  0.  0.
260  2.59  0.  0.
261  2.60  0.  0.
262  2.61  0.  0.
263  2.62  0.  0.
264  2.63  0.  0.
265  2.64  0.  0.
266  2.65  0.  0.
267  2.66  0.  0.
268  2.67  0.  0.
269  2.68  0.  0.
270  2.69  0.  0.
271  2.70  0.  0.
272  2.71  0.  0.
273  2.72  0.  0.
274  2.73  0.  0.
275  2.74  0.  0.
276  2.75  0.  0.
277  2.76  0.  0.
278  2.77  0.  0.
279  2.78  0.  0.
280  2.79  0.  0.
281  2.80  0.  0.
282  2.81  0.  0.
283  2.82  0.  0.
284  2.83  0.  0.
285  2.84  0.  0.
286  2.85  0.  0.
287  2.86  0.  0.
288  2.87  0.  0.
289  2.88  0.  0.
290  2.89  0.  0.
291  2.90  0.  0.
292  2.91  0.  0.
293  2.92  0.  0.
294  2.93  0.  0.
295  2.94  0.  0.
296  2.95  0.  0.
297  2.96  0.  0.
298  2.97  0.  0.
299  2.98  0.  0.
300  2.99  0.  0.
301  3.00  0.  0.
302  3.01  0.  0.
303  3.02  0.  0.
304  3.03  0.  0.
305  3.04  0.  0.
306  3.05  0.  0.
307  3.06  0.  0.
308  3.07  0.  0.
309  3.08  0.  0.
310  3.09  0.  0.
311  3.10  0.  0.
312  3.11  0.  0.
313  3.12  0.  0.
314  3.13  0.  0.
315  3.14  0.  0.
316  3.15  0.  0.
317  3.16  0.  0.
318  3.17  0.  0.
319  3.18  0.  0.
320  3.19  0.  0.
321  3.20  0.  0.
322  3.21  0.  0.
323  3.22  0.  0.
324  3.23  0.  0.
325  3.24  0.  0.
326  3.25  0.  0.
327  3.26  0.  0.
328  3.27  0.  0.
329  3.28  0.  0.
330  3.29  0.  0.
331  3.30  0.  0.
332  3.31  0.  0.
333  3.32  0.  0.
334  3.33  0.  0.
335  3.34  0.  0.
336  3.35  0.  0.
337  3.36  0.  0.
338  3.37  0.  0.
339  3.38  0.  0.
340  3.39  0.  0.
341  3.40  0.  0.
342  3.41  0.  0.
343  3.42  0.  0.
344  3.43  0.  0.
345  3.44  0.  0.
346  3.45  0.  0.
347  3.46  0.  0.
348  3.47  0.  0.
349  3.48  0.  0.
350  3.49  0.  0.
351  3.50  0.  0.
352  3.51  0.  0.
353  3.52  0.  0.
354  3.53  0.  0.
355  3.54  0.  0.
356  3.55  0.  0.
357  3.56  0.  0.
358  3.57  0.  0.
359  3.58  0.  0.
360  3.59  0.  0.
361  3.60  0.  0.
362  3.61  0.  0.
363  3.62  0.  0.
364  3.63  0.  0.
365  3.64  0.  0.
366  3.65  0.  0.
367  3.66  0.  0.
368  3.67  0.  0.
369  3.68  0.  0.
370  3.69  0.  0.
371  3.70  0.  0.
372  3.71  0.  0.
373  3.72  0.  0.
374  3.73  0.  0.
375  3.74  0.  0.
376  3.75  0.  0.
377  3.76  0.  0.
378  3.77  0.  0.
379  3.78  0.  0.
380  3.79  0.  0.
381  3.80  0.  0.
382  3.81  0.  0.
383  3.82  0.  0.
384  3.83  0.  0.
385  3.84  0.  0.
386  3.85  0.  0.
387  3.86  0.  0.
388  3.87  0.  0.
389  3.88  0.  0.
390  3.89  0.  0.
391  3.90  0.  0.
392  3.91  0.  0.
393  3.92  0.  0.
394  3.93  0.  0.
395  3.94  0.  0.
396  3.95  0.  0.
397  3.96  0.  0.
398  3.97  0.  0.
399  3.98  0.  0.
400  3.99  0.  0.
401  4.00  0.  0.
402  4.01  0.  0.
403  4.02  0.  0.
404  4.03  0.  0.
405  4.04  0.  0.
406  4.05  0.  0.
407  4.06  0.  0.
408  4.07  0.  0.
409  4.08  0.  0.
410  4.09  0.  0.
411  4.10  0.  0.
412  4.11  0.  0.
413  4.12  0.  0.
414  4.13  0.  0.
415  4.14  0.  0.
416  4.15  0.  0.
417  4.16  0.  0.
418  4.17  0.  0.
419  4.18  0.  0.
420  4.19  0.  0.
421  4.20  0.  0.
422  4.21  0.  0.
423  4.22  0.  0.
424  4.23  0.  0.
425  4.24  0.  0.
426  4.25  0.  0.
427  4.26  0.  0.
428  4.27  0.  0.
429  4.28  0.  0.
430  4.29  0.  0.
431  4.30  0.  0.
432  4.31  0.  0.
433  4.32  0.  0.
434  4.33  0.  0.
435  4.34  0.  0.
436  4.35  0.  0.
437  4.36  0.  0.
438  4.37  0.  0.
439  4.38  0.  0.
440  4.39  0.  0.
441  4.40  0.  0.
442  4.41  0.  0.
443  4.42  0.  0.
444  4.43  0.  0.
445  4.44  0.  0.
446  4.45  0.  0.
447  4.46  0.  0.
448  4.47  0.  0.
449  4.48  0.  0.
450  4.49  0.  0.
451  4.50  0.  0.
452  4.51  0.  0.
453  4.52  0.  0.
454  4.53  0.  0.
455  4.54  0.  0.
456  4.55  0.  0.
457  4.56  0.  0.
458  4.57  0.  0.
459  4.58  0.  0.
460  4.59  0.  0.
461  4.60  0.  0.
462  4.61  0.  0.
463  4.62  0.  0.
464  4.63  0.  0.
465  4.64  0.  0.
466  4.65  0.  0.
467  4.66  0.  0.
468  4.67  0.  0.
469  4.68  0.  0.
470  4.69  0.  0.
471  4.70  0.  0.
472  4.71  0.  0.
473  4.72  0.  0.
474  4.73  0.  0.
475  4.74  0.  0.
476  4.75  0.  0.
477  4.76  0.  0.
478  4.77  0.  0.
479  4.78  0.  0.
480  4.79  0.  0.
481  4.80  0.  0.
482  4.81  0.  0.
483  4.82  0.  0.
484  4.83  0.  0.
485  4.84  0.  0.
486  4.85  0.  0.
487  4.86  0.  0.
488  4.87  0.  0.
489  4.88  0.  0.
490  4.89  0.  0.
491  4.90  0.  0.
492  4.91  0.  0.
493  4.92  0.  0.
494  4.93  0.  0.
495  4.94  0.  0.
496  4.95  0.  0.
497  4.96  0.  0.
498  4.97  0.  0.
499  4.98  0.  0.
500  4.99  0.  0.
501  5.00  0.  0.
502  5.01  0.  0.
503  5.02  0.  0.
504  5.03  0.  0.
505  5.04  0.  0.
506  5.05  0.  0.
507  5.06  0.  0.
508  5.07  0.  0.
509  5.08  0.  0.
510  5.09  0.  0.
511  5.10  0.  0.
512  5.11  0.  0.
513  5.12  0.  0.
514  5.13  0.  0.
515  5.14  0.  0.
516  5.15  0.  0.
517  5.16  0.  0.
518  5.17  0.  0.
519  5.18  0.  0.
520  5.19  0.  0.
521  5.20  0.  0.
522  5.21  0.  0.
523  5.22  0.  0.
524  5.23  0.  0.
525  5.24  0.  0.
526  5.25  0.  0.
527  5.26  0.  0.
528  5.27  0.  0.
529  5.28  0.  0.
530  5.29  0.  0.
531  5.30  0.  0.
532  5.31  0.  0.
533  5.32  0.  0.
534  5.33  0.  0.
535  5.34  0.  0.
536  5.35  0.  0.
537  5.36  0.  0.
538  5.37  0.  0.
539  5.38  0.  0.
540  5.39  0.  0.
541  5.40  0.  0.
542  5.41  0.  0.
543  5.42  0.  0.
544  5.43  0.  0.
545  5.44  0.  0.
546  5.45  0.  0.
547  5.46  0.  0.
548  5.47  0.  0.
549  5.48  0.  0.
550  5.49  0.  0.
551  5.50  0.  0.
552  5.51  0.  0.
553  5.52  0.  0.
554  5.53  0.  0.
555  5.54  0.  0.
556  5.55  0.  0.
557  5.56  0.  0.
558  5.57  0.  0.
559  5.58  0.  0.
560  5.59  0.  0.
561  5.60  0.  0.
562  5.61  0.  0.
563  5.62  0.  0.
564  5.63  0.  0.
565  5.64  0.  0.
566  5.65  0.  0.
567  5.66  0.  0.
568  5.67  0.  0.
569  5.68  0.  0.
570  5.69  0.  0.
571  5.70  0.  0.
572  5.71  0.  0.
573  5.72  0.  0.
574  5.73  0.  0.
575  5.74  0.  0.
576  5.75  0.  0.
577  5.76  0.  0.
578  5.77  0.  0.
579  5.78  0.  0.
580  5.79  0.  0.
581  5.80  0.  0.
582  5.81  0.  0.
583  5.82  0.  0.
584  5.83  0.  0.
585  5.84  0.  0.
586  5.85  0.  0.
587  5.86  0.  0.
588  5.87  0.  0.
589  5.88  0.  0.
590  5.89  0.  0.
591  5.90  0.  0.
592  5.91  0.  0.
593  5.92  0.  0.
594  5.93  0.  0.
595  5.94  0.  0.
596  5.95  0.  0.
597  5.96  0.  0.
598  5.97  0.  0.
599  5.98  0.  0.
600  5.99  0.  0.
1                         4.9782371565407E+00  2.8029707765393E-01
1  0.0000000000000E+00  7.8462844554927E-09 -7.5670095300850E-08
2  1.0000000000000E-02  1.4088478205474E-03 -5.1792971574619E-03
3  2.0000000000000E-02  5.6216402864779E-03 -2.0600511356920E-02
4  3.0000000000000E-02  1.2597364499531E-02 -4.5915926536844E-02
5  4.0000000000000E-02  2.2268461313652E-02 -8.0553690757472E-02
6  5.0000000000000E-02  3.4542002808355E-02 -1.2372917401697E-01
7  6.0000000000000E-02  4.9301308960600E-02 -1.7446056332796E-01
8  7.0000000000000E-02  6.6407972454912E-02 -2.3158839610967E-01
9  8.0000000000000E-02  8.5704252725171E-02 -2.9379865728074E-01
10  9.0000000000000E-02  1.0701579321962E-01 -3.5964899682532E-01
11  1.0000000000000E-01  1.3015460965942E-01 -4.2759756434466E-01
12  1.1000000000000E-01  1.5492229184016E-01 -4.9603390634201E-01
13  1.2000000000000E-01  1.8111335740638E-01 -5.6331133168041E-01
14  1.3000000000000E-01  2.0851869309043E-01 -6.2778012157351E-01
15  1.4000000000000E-01  2.3692901720808E-01 -6.8782094317736E-01
16  1.5000000000000E-01  2.6613829677698E-01 -7.4187782068604E-01
17  1.6000000000000E-01  2.9594705348158E-01 -7.8849002491084E-01
18  1.7000000000000E-01  3.2616549483464E-01 -8.2632226152628E-01
19  1.8000000000000E-01  3.5661641024303E-01 -8.5419256915214E-01
20  1.9000000000000E-01  3.8713777621219E-01 -8.7109738065049E-01
21  2.0000000000000E-01  4.1758502053527E-01 -8.7623325366981E-01
22  2.1000000000000E-01  4.4783290190475E-01 -8.6901483860131E-01
23  2.2000000000000E-01  4.7777696883251E-01 -8.4908872256842E-01
24  2.3000000000000E-01  5.0733456992848E-01 -8.1634286554679E-01
25  2.4000000000000E-01  5.3644539631381E-01 -7.7091142776321E-01
26  2.5000000000000E-01  5.6507154606659E-01 -7.1317487459998E-01
27  2.6000000000000E-01  5.9319710994311E-01 -6.4375533470779E-01
28  2.7000000000000E-01  6.2082728700695E-01 -5.6350727722701E-01
29  2.8000000000000E-01  6.4798704805298E-01 -4.7350366324101E-01
30  2.9000000000000E-01  6.7471937365478E-01 -3.7501781315371E-01
31  3.0000000000000E-01  7.0108310212101E-01 -2.6950131396233E-01
32  3.1000000000000E-01  7.2715043045393E-01 -1.5855836682433E-01
33  3.2000000000000E-01  7.5300411841037E-01 -4.3917044440999E-02
34  3.3000000000000E-01  7.7873445183436E-01  7.2602011723279E-02
35  3.4000000000000E-01  8.0443602644066E-01  1.8911887366293E-01
36  3.5000000000000E-01  8.3020441707995E-01  3.0372896784313E-01
37  3.6000000000000E-01  8.5613280012961E-01  4.1453842598600E-01
38  3.7000000000000E-01  8.8230859797374E-01  5.1969948038530E-01
39  3.8000000000000E-01  9.0881021453026E-01  6.1744523475739E-01
40  3.9000000000000E-01  9.3570392944595E-01  7.0612315048403E-01
41  4.0000000000000E-01  9.6304101592964E-01  7.8422660942732E-01
42  4.1000000000000E-01  9.9085514327499E-01  8.5042394794094E-01
43  4.2000000000000E-01  1.0191601200042E+00  9.0358440168063E-01
44  4.3000000000000E-01  1.0479480273337E+00  9.4280045653062E-01
45  4.4000000000000E-01  1.0771877854384E+00  9.6740616640351E-01
46  4.5000000000000E-01  1.1068241868965E+00  9.7699107264603E-01
47  4.6000000000000E-01  1.1367774228962E+00  9.7140944093803E-01
48  4.7000000000000E-01  1.1669431184241E+00  9.5078461840605E-01
49  4.8000000000000E-01  1.1971928829248E+00  9.1550840458057E-01
50  4.9000000000000E-01  1.2273753729952E+00  8.6623542311283E-01
51  5.0000000000000E-01  1.2573178537454E+00  8.0387257509019E-01
52  5.1000000000000E-01  1.2868282357155E+00  7.2956374758675E-01
53  5.2000000000000E-01  1.3156975548584E+00  6.4467004100852E-01
54  5.3000000000000E-01  1.3437028542798E+00  5.5074586413827E-01
55  5.4000000000000E-01  1.3706104183259E+00  4.4951132493164E-01
56  5.5000000000000E-01  1.3961793023896E+00  3.4282141654938E-01
57  5.6000000000000E-01  1.4201650956169E+00  2.3263256045631E-01
58  5.7000000000000E-01  1.4423238486466E+00  1.2096712046433E-01
59  5.8000000000000E-01  1.4624160947295E+00  9.8765423247695E-03
60  5.9000000000000E-01  1.4802108901090E+00 -9.8596197928648E-02
61  6.0000000000000E-01  1.4954897984752E+00 -2.0245413781287E-01
62  6.1000000000000E-01  1.5080507446500E+00 -2.9978316252811E-01
63  6.2000000000000E-01  1.5177116644221E+00 -3.8878743789374E-01
64  6.3000000000000E-01  1.5243138806117E+00 -4.6782277400920E-01
65  6.4000000000000E-01  1.5277251399476E+00 -5.3542728763266E-01
66  6.5000000000000E-01  1.5278422511094E+00 -5.9034877936929E-01
67  6.6000000000000E-01  1.5245932712231E+00 -6.3156830102609E-01
68  6.7000000000000E-01  1.5179391960798E+00 -6.5831945786261E-01
69  6.8000000000000E-01  1.5078751182196E+00 -6.7010306866598E-01
70  6.9000000000000E-01  1.4944308266366E+00 -6.6669689218288E-01
71  7.0000000000000E-01  1.4776708320273E+00 -6.4816021985495E-01
72  7.1000000000000E-01  1.4576938120450E+00 -6.1483323033690E-01
73  7.2000000000000E-01  1.4346314817273E+00 -5.6733109913747E-01
74  7.3000000000000E-01  1.4086469049460E+00 -5.0653295508518E-01
75  7.4000000000000E-01  1.3799322731732E+00 -4.3356587231749E-01
76  7.5000000000000E-01  1.3487061878723E+00 -3.4978418030723E-01
77  7.6000000000000E-01  1.3152104922146E+00 -2.5674446327703E-01
78  7.7000000000000E-01  1.2797067064097E+00 -1.5617670252271E-01
79  7.8000000000000E-01  1.2424721285553E+00 -4.9952089098616E-02
80  7.9000000000000E-01  1.2037956694051E+00  5.9951901417219E-02
81  8.0000000000000E-01  1.1639734947049E+00  1.7148852700887E-01
82  8.1000000000000E-01  1.1233045526337E+00  2.8258020369511E-01
83  8.2000000000000E-01  1.0820860663492E+00  3.9115762130783E-01
84  8.3000000000000E-01  1.0406090725976E+00  4.9519882024102E-01
85  8.4000000000000E-01  9.9915408680951E-01  5.9276749727051E-01
86  8.5000000000000E-01  9.5798697303711E-01  6.8204982074538E-01
87  8.6000000000000E-01  9.1735509355838E-01  7.6138906122492E-01
88  8.7000000000000E-01  8.7748380801358E-01  8.2931738253647E-01
89  8.8000000000000E-01  8.3857338565509E-01  8.8458418955675E-01
90  8.9000000000000E-01  8.0079638678730E-01  9.2618049183871E-01
91  9.0000000000000E-01  7.6429556088871E-01  9.5335881535942E-01
92  9.1000000000000E-01  7.2918229940302E-01  9.6564827679242E-01
93  9.2000000000000E-01  6.9553567093459E-01  9.6286452428202E-01
94  9.3000000000000E-01  6.6340205577951E-01  9.4511434403604E-01
95  9.4000000000000E-01  6.3279538556807E-01  9.1279483137324E-01
96  9.5000000000000E-01  6.0369798249886E-01  8.6658712629041E-01
97  9.6000000000000E-01  5.7606198142372E-01  8.0744481522548E-01
98  9.7000000000000E-01  5.4981130710612E-01  7.3657720059635E-01
99  9.8000000000000E-01  5.2484416853550E-01  6.5542773597340E-01
100  9.9000000000000E-01  5.0103602243246E-01  5.6564801558706E-01
101  1.0000000000000E+00  4.7824294921564E-01  4.6906779053811E-01
102  1.0100000000000E+00  4.5630537688468E-01  3.6766155902373E-01
103  1.0200000000000E+00  4.3505208166010E-01  2.6351234265783E-01
104  1.0300000000000E+00  4.1430438893905E-01  1.5877331431459E-01
105  1.0400000000000E+00  3.9388049427315E-01  5.5627983894277E-02
106  1.0500000000000E+00  3.7359982173120E-01 -4.3750323808717E-02
107  1.0600000000000E+00  3.5328733622158E-01 -1.3723895089544E-01
108  1.0700000000000E+00  3.3277772712994E-01 -2.2280559943927E-01
109  1.0800000000000E+00  3.1191938297364E-01 -2.9854650136474E-01
110  1.0900000000000E+00  2.9057808062331E-01 -3.6272235810922E-01
111  1.1000000000000E+00  2.6864031795687E-01 -4.1379138384518E-01
112  1.1100000000000E+00  2.4601622543933E-01 -4.5043883894906E-01
113  1.1200000000000E+00  2.2264200000757E-01 -4.7160250498629E-01
114  1.1300000000000E+00  1.9848181355324E-01 -4.7649362682110E-01
115  1.1400000000000E+00  1.7352915815699E-01 -4.6461293088363E-01
116  1.1500000000000E+00  1.4780760075521E-01 -4.3576141874986E-01
117  1.1600000000000E+00  1.2137093101811E-01 -3.9004573118270E-01
118  1.1700000000000E+00  9.4302697555752E-02 -3.2787797678521E-01
119  1.1800000000000E+00  6.6715139081295E-02 -2.4997002087185E-01
120  1.1900000000000E+00  3.8747528444307E-02 -1.5732233050844E-01
121  1.2000000000000E+00  1.0563958508977E-02 -5.1207571002122E-02
122  1.2100000000000E+00 -1.7649390745442E-02  6.6850756483516E-02
123  1.2200000000000E+00 -4.5687454776303E-02  1.9510425698371E-01
124  1.2300000000000E+00 -7.3329898774280E-02  3.3160970241255E-01
125  1.2400000000000E+00 -1.0034507810788E-01  4.7426267682380E-01
126  1.2500000000000E+00 -1.2649427281540E-01  6.2083420888682E-01
127  1.2600000000000E+00 -1.5153611893894E-01  7.6900974258942E-01
128  1.2700000000000E+00 -1.7523115579044E-01  9.1642975726064E-01
129  1.2800000000000E+00 -1.9734640605347E-01  1.0607313209299E+00
130  1.2900000000000E+00 -2.1765990497580E-01  1.1995898471022E+00
131  1.3000000000000E+00 -2.3596509579331E-01  1.3307603242097E+00
132  1.3100000000000E+00 -2.5207501094301E-01  1.4521172993951E+00
133  1.3200000000000E+00 -2.6582616249736E-01  1.5616929233418E+00