Ho    ONCVPSP-4.0.1  r_core=   2.00759   1.60898   1.90236   1.40216
67.0000     21.0000      250626    zatom,zion,pspd
8      11   3     4   600     0    pspcod,pspxc,lmax,lloc,mmax,r2well
5.99000000 11.00000000  0.00000000    rchrg fchrg qchrg
2     2     2     2     0    nproj
1     1           extension_switch
0                         7.4547843870120E+00  1.0214416778652E+00
1  0.0000000000000E+00  7.1651184985200E-11 -2.0273757672662E-10
2  1.0000000000000E-02  4.2256835199105E-02 -4.2406952173660E-03
3  2.0000000000000E-02  8.4489004818382E-02 -8.5082679855901E-03
4  3.0000000000000E-02  1.2667168012672E-01 -1.2829089819803E-02
5  4.0000000000000E-02  1.6877970807704E-01 -1.7228525522734E-02
6  5.0000000000000E-02  2.1078745409650E-01 -2.1730443174307E-02
7  6.0000000000000E-02  2.5266865076341E-01 -2.6356739991506E-02
8  7.0000000000000E-02  2.9439625424856E-01 -3.1126889108824E-02
9  8.0000000000000E-02  3.3594231032664E-01 -3.6057512126834E-02
10  9.0000000000000E-02  3.7727783167549E-01 -4.1161982026299E-02
11  1.0000000000000E-01  4.1837268807579E-01 -4.6450060750082E-02
12  1.1000000000000E-01  4.5919551100478E-01 -5.1927575417448E-02
13  1.2000000000000E-01  4.9971361398323E-01 -5.7596136758333E-02
14  1.3000000000000E-01  5.3989292988819E-01 -6.3452902941922E-02
15  1.4000000000000E-01  5.7969796628558E-01 -6.9490391528561E-02
16  1.5000000000000E-01  6.1909177966721E-01 -7.5696341800131E-02
17  1.6000000000000E-01  6.5803596929901E-01 -8.2053629226335E-02
18  1.7000000000000E-01  6.9649069120150E-01 -8.8540233307257E-02
19  1.8000000000000E-01  7.3441469259234E-01 -9.5129259500516E-02
20  1.9000000000000E-01  7.7176536692480E-01 -1.0178901540000E-01
21  2.0000000000000E-01  8.0849882945830E-01 -1.0848314078686E-01
22  2.1000000000000E-01  8.4457001309808E-01 -1.1517079062774E-01
23  2.2000000000000E-01  8.7993278404330E-01 -1.2180686955521E-01
24  2.3000000000000E-01  9.1454007658778E-01 -1.2834231583643E-01
25  2.4000000000000E-01  9.4834404622743E-01 -1.3472443232272E-01
26  2.5000000000000E-01  9.8129624004391E-01 -1.4089726138132E-01
27  2.6000000000000E-01  1.0133477831582E+00 -1.4680200034416E-01
28  2.7000000000000E-01  1.0444495798811E+00 -1.5237745357416E-01
29  2.8000000000000E-01  1.0745525280331E+00 -1.5756051684923E-01
30  2.9000000000000E-01  1.1036077447619E+00 -1.6228668940443E-01
31  3.0000000000000E-01  1.1315668020606E+00 -1.6649060865609E-01
32  3.1000000000000E-01  1.1583819700729E+00 -1.7010660236194E-01
33  3.2000000000000E-01  1.1840064661791E+00 -1.7306925275236E-01
34  3.3000000000000E-01  1.2083947077747E+00 -1.7531396700126E-01
35  3.4000000000000E-01  1.2315025665974E+00 -1.7677754829441E-01
36  3.5000000000000E-01  1.2532876224124E+00 -1.7739876169903E-01
37  3.6000000000000E-01  1.2737094138504E+00 -1.7711888904262E-01
38  3.7000000000000E-01  1.2927296841882E+00 -1.7588226707311E-01
39  3.8000000000000E-01  1.3103126198836E+00 -1.7363680329437E-01
40  3.9000000000000E-01  1.3264250797155E+00 -1.7033446405311E-01
41  4.0000000000000E-01  1.3410368124420E+00 -1.6593172969222E-01
42  4.1000000000000E-01  1.3541206609696E+00 -1.6039001188119E-01
43  4.2000000000000E-01  1.3656527511256E+00 -1.5367602858343E-01
44  4.3000000000000E-01  1.3756126632472E+00 -1.4576213252162E-01
45  4.4000000000000E-01  1.3839835849355E+00 -1.3662658945019E-01
46  4.5000000000000E-01  1.3907524434765E+00 -1.2625380303762E-01
47  4.6000000000000E-01  1.3959100166021E+00 -1.1463448369334E-01
48  4.7000000000000E-01  1.3994510204448E+00 -1.0176575924202E-01
49  4.8000000000000E-01  1.4013741737364E+00 -8.7651225944592E-02
50  4.9000000000000E-01  1.4016822375096E+00 -7.2300938987597E-02
51  5.0000000000000E-01  1.4003820297723E+00 -5.5731342200441E-02
52  5.1000000000000E-01  1.3974844148526E+00 -3.7965137411906E-02
53  5.2000000000000E-01  1.3930042673350E+00 -1.9031094512444E-02
54  5.3000000000000E-01  1.3869604107421E+00  1.0361960565013E-03
55  5.4000000000000E-01  1.3793755313454E+00  2.2196626019765E-02
56  5.5000000000000E-01  1.3702760677198E+00  4.4404924195293E-02
57  5.6000000000000E-01  1.3596920768806E+00  6.7611060025727E-02
58  5.7000000000000E-01  1.3476570780649E+00  9.1760691531170E-02
59  5.8000000000000E-01  1.3342078754278E+00  1.1679565295617E-01
60  5.9000000000000E-01  1.3193843611279E+00  1.4265447688292E-01
61  6.0000000000000E-01  1.3032293004669E+00  1.6927294512967E-01
62  6.1000000000000E-01  1.2857881009207E+00  1.9658466235357E-01
63  6.2000000000000E-01  1.2671085670632E+00  2.2452164593751E-01
64  6.3000000000000E-01  1.2472406435209E+00  2.5301492546290E-01
65  6.4000000000000E-01  1.2262361482242E+00  2.8199514486216E-01
66  6.5000000000000E-01  1.2041484983192E+00  3.1139316020653E-01
67  6.6000000000000E-01  1.1810324311867E+00  3.4114062602137E-01
68  6.7000000000000E-01  1.1569437230718E+00  3.7117056303415E-01
69  6.8000000000000E-01  1.1319389078617E+00  4.0141790035018E-01
70  6.9000000000000E-01  1.1060749985591E+00  4.3181998522014E-01
71  7.0000000000000E-01  1.0794092139853E+00  4.6231705381014E-01
72  7.1000000000000E-01  1.0519987132063E+00  4.9285265670863E-01
73  7.2000000000000E-01  1.0239003401148E+00  5.2337403330392E-01
74  7.3000000000000E-01  9.9517038051060E-01  5.5383242963812E-01
75  7.4000000000000E-01  9.6586433391443E-01  5.8418335488470E-01
76  7.5000000000000E-01  9.3603670221443E-01  6.1438677220433E-01
77  7.6000000000000E-01  9.0574079709086E-01  6.4440722040151E-01
78  7.7000000000000E-01  8.7502856798899E-01  6.7421386352807E-01
79  7.8000000000000E-01  8.4395045221535E-01  7.0378046635263E-01
80  7.9000000000000E-01  8.1255524852032E-01  7.3308529443151E-01
81  8.0000000000000E-01  7.8089001530198E-01  7.6211093836872E-01
82  8.1000000000000E-01  7.4899999432378E-01  7.9084406273408E-01
83  8.2000000000000E-01  7.1692856058374E-01  8.1927508101078E-01
84  8.3000000000000E-01  6.8471719870792E-01  8.4739775885990E-01
85  8.4000000000000E-01  6.5240550596739E-01  8.7520874891001E-01
86  8.5000000000000E-01  6.2003122173831E-01  9.0270706119888E-01
87  8.6000000000000E-01  5.8763028294049E-01  9.2989347430119E-01
88  8.7000000000000E-01  5.5523690470378E-01  9.5676989306490E-01
89  8.8000000000000E-01  5.2288368522529E-01  9.8333865973994E-01
90  8.9000000000000E-01  4.9060173349600E-01  1.0096018261095E+00
91  9.0000000000000E-01  4.5842081829468E-01  1.0355603950181E+00
92  9.1000000000000E-01  4.2636953657251E-01  1.0612135404251E+00
93  9.2000000000000E-01  3.9447549908459E-01  1.0865578157891E+00
94  9.3000000000000E-01  3.6276553086720E-01  1.1115863612032E+00
95  9.4000000000000E-01  3.3126588391342E-01  1.1362881202427E+00
96  9.5000000000000E-01  3.0000245916697E-01  1.1606470779558E+00
97  9.6000000000000E-01  2.6900103473587E-01  1.1846415318096E+00
98  9.7000000000000E-01  2.3828749702625E-01  1.2082434076994E+00
99  9.8000000000000E-01  2.0788807131357E-01  1.2314176333306E+00
100  9.9000000000000E-01  1.7782954810621E-01  1.2541215813816E+00
101  1.0000000000000E+00  1.4813950151570E-01  1.2763045948473E+00
102  1.0100000000000E+00  1.1884649573259E-01  1.2979076068461E+00
103  1.0200000000000E+00  8.9980275617275E-02  1.3188628669294E+00
104  1.0300000000000E+00  6.1571937355728E-02  1.3390937855680E+00
105  1.0400000000000E+00  3.3654075102264E-02  1.3585149079845E+00
106  1.0500000000000E+00  6.2608995388757E-03  1.3770320278576E+00
107  1.0600000000000E+00 -2.0571675672604E-02  1.3945424506187E+00
108  1.0700000000000E+00 -4.6805983480318E-02  1.4109354151004E+00
109  1.0800000000000E+00 -7.2402592872067E-02  1.4260926811479E+00
110  1.0900000000000E+00 -9.7320341753761E-02  1.4398892894737E+00
111  1.1000000000000E+00 -1.2151641663849E-01  1.4521944984898E+00
112  1.1100000000000E+00 -1.4494648219578E-01  1.4628729010838E+00
113  1.1200000000000E+00 -1.6756486332839E-01  1.4717857222964E+00
114  1.1300000000000E+00 -1.8932478197980E-01  1.4787922965703E+00
115  1.1400000000000E+00 -2.1017865032738E-01  1.4837517206802E+00
116  1.1500000000000E+00 -2.3007842136555E-01  1.4865246755532E+00
117  1.1600000000000E+00 -2.4897599713165E-01  1.4869754069673E+00
118  1.1700000000000E+00 -2.6682369394970E-01  1.4849738514914E+00
119  1.1800000000000E+00 -2.8357476306730E-01  1.4803978900150E+00
120  1.1900000000000E+00 -2.9918396391067E-01  1.4731357067362E+00
121  1.2000000000000E+00 -3.1360818588102E-01  1.4630882265176E+00
122  1.2100000000000E+00 -3.2680711314255E-01  1.4501715980370E+00
123  1.2200000000000E+00 -3.3874392518631E-01  1.4343196840741E+00
124  1.2300000000000E+00 -3.4938602410156E-01  1.4154865136251E+00
125  1.2400000000000E+00 -3.5870577739500E-01  1.3936486431469E+00
126  1.2500000000000E+00 -3.6668126288696E-01  1.3688073661779E+00
127  1.2600000000000E+00 -3.7329699964599E-01  1.3409907017444E+00
128  1.2700000000000E+00 -3.7854464606968E-01  1.3102550822479E+00
129  1.2800000000000E+00 -3.8242364309267E-01  1.2766866509933E+00
130  1.2900000000000E+00 -3.8494177705555E-01  1.2404020680005E+00
131  1.3000000000000E+00 -3.8611563297881E-01  1.2015487101878E+00
132  1.3100000000000E+00 -3.8597090485779E-01  1.1603041384296E+00
133  1.3200000000000E+00 -3.8454252509304E-01  1.1168746892756E+00
134  1.3300000000000E+00 -3.8187457024477E-01  1.0714930331015E+00
135  1.3400000000000E+00 -3.7801989497878E-01  1.0244145232459E+00
136  1.3500000000000E+00 -3.7303944030597E-01  9.7591214211670E-01
137  1.3600000000000E+00 -3.6700115595947E-01  9.2626983016904E-01
138  1.3700000000000E+00 -3.5997847001627E-01  8.7577396210592E-01
139  1.3800000000000E+00 -3.5204823098510E-01  8.2470270782789E-01
140  1.3900000000000E+00 -3.4328803939274E-01  7.7331298978795E-01
141  1.4000000000000E+00 -3.3377291869927E-01  7.2182495557846E-01
142  1.4100000000000E+00 -3.2357126629756E-01  6.7040388871674E-01
143  1.4200000000000E+00 -3.1274585524753E-01  6.1917312400859E-01
144  1.4300000000000E+00 -3.0135971633435E-01  5.6825292651208E-01
145  1.4400000000000E+00 -2.8947720682665E-01  5.1776793628336E-01
146  1.4500000000000E+00 -2.7716369076488E-01  4.6784613179402E-01
147  1.4600000000000E+00 -2.6448524414430E-01  4.1861798885386E-01
148  1.4700000000000E+00 -2.5150834017529E-01  3.7021555768871E-01
149  1.4800000000000E+00 -2.3829952290865E-01  3.2277150146952E-01
150  1.4900000000000E+00 -2.2492507154507E-01  2.7641810271584E-01
151  1.5000000000000E+00 -2.1145065819432E-01  2.3128624632595E-01
152  1.5100000000000E+00 -1.9794100193776E-01  1.8750438823291E-01
153  1.5200000000000E+00 -1.8445952218252E-01  1.4519751922450E-01
154  1.5300000000000E+00 -1.7106799431352E-01  1.0448613345465E-01
155  1.5400000000000E+00 -1.5782621070265E-01  6.5485211401525E-02
156  1.5500000000000E+00 -1.4479165013951E-01  2.8303227063885E-02
157  1.5600000000000E+00 -1.3201915870505E-01 -6.9588109654897E-03
158  1.5700000000000E+00 -1.1956064506374E-01 -4.0208275020193E-02
159  1.5800000000000E+00 -1.0746479303651E-01 -7.1361781336673E-02
160  1.5900000000000E+00 -9.5776794284529E-02 -1.0034599131684E-01
161  1.6000000000000E+00 -8.4538103599533E-02 -1.2709834324162E-01
162  1.6100000000000E+00 -7.3786219384619E-02 -1.5156770593116E-01
163  1.6200000000000E+00 -6.3554491468751E-02 -1.7371494760041E-01
164  1.6300000000000E+00 -5.3871958329933E-02 -1.9351341314884E-01
165  1.6400000000000E+00 -4.4763215476651E-02 -2.1094930427184E-01
166  1.6500000000000E+00 -3.6248316521360E-02 -2.2602195740261E-01
167  1.6600000000000E+00 -2.8342708162448E-02 -2.3874401555128E-01
168  1.6700000000000E+00 -2.1057200008869E-02 -2.4914149098818E-01
169  1.6800000000000E+00 -1.4397969881212E-02 -2.5725371667008E-01
170  1.6900000000000E+00 -8.3666048881277E-03 -2.6313318539686E-01
171  1.7000000000000E+00 -2.9601782598334E-03 -2.6684527669314E-01
172  1.7100000000000E+00  1.8286383932872E-03 -2.6846787239912E-01
173  1.7200000000000E+00  6.0114280790216E-03 -2.6809086310114E-01
174  1.7300000000000E+00  9.6038476576364E-03 -2.6581554845637E-01
175  1.7400000000000E+00  1.2625414632630E-02 -2.6175393558526E-01
176  1.7500000000000E+00  1.5099263097134E-02 -2.5602794057227E-01
177  1.7600000000000E+00  1.7051870747387E-02 -2.4876849913463E-01
178  1.7700000000000E+00  1.8512759154603E-02 -2.4011459341676E-01
179  1.7800000000000E+00  1.9514169722245E-02 -2.3021220260479E-01
180  1.7900000000000E+00  2.0090718014802E-02 -2.1921318590636E-01
181  1.8000000000000E+00  2.0279029359878E-02 -2.0727410713150E-01
182  1.8100000000000E+00  2.0117358782913E-02 -1.9455501059568E-01
183  1.8200000000000E+00  1.9645198591082E-02 -1.8121815895724E-01
184  1.8300000000000E+00  1.8902876614356E-02 -1.6742674232712E-01
185  1.8400000000000E+00  1.7931149761343E-02 -1.5334357428145E-01
186  1.8500000000000E+00  1.6770794305914E-02 -1.3912977788143E-01
187  1.8600000000000E+00  1.5462198238584E-02 -1.2494347986747E-01
188  1.8700000000000E+00  1.4044960289447E-02 -1.1093852775315E-01
189  1.8800000000000E+00  1.2557492139378E-02 -9.7263218963618E-02
190  1.8900000000000E+00  1.1036642706894E-02 -8.4059098649921E-02
191  1.9000000000000E+00  9.5173391889750E-03 -7.1459810156275E-02
192  1.9100000000000E+00  8.0319798352466E-03 -5.9589274902781E-02
193  1.9200000000000E+00  6.6087870243296E-03 -4.8556915362359E-02
194  1.9300000000000E+00  5.2746100964455E-03 -3.8465323250048E-02
195  1.9400000000000E+00  4.0545458656678E-03 -2.9409189971222E-02
196  1.9500000000000E+00  2.9698682383172E-03 -2.1469505970151E-02
197  1.9600000000000E+00  2.0381227858400E-03 -1.4713712237951E-02
198  1.9700000000000E+00  1.2729124672834E-03 -9.1950299951252E-03
199  1.9800000000000E+00  6.8401350199602E-04 -4.9538948372099E-03
200  1.9900000000000E+00  2.7429782994774E-04 -1.9955108807460E-03
201  2.0000000000000E+00  5.5466921978350E-05 -4.0632195543292E-04
202  2.0100000000000E+00 -4.9563998179338E-06  3.6479258025802E-05
203  2.0200000000000E+00  2.3772190756577E-07 -1.7433911359442E-06
204  2.03  0. -0.
205  2.04 -0.  0.
206  2.05 -0. -0.
207  2.06  0.  0.
208  2.07  0.  0.
209  2.08  0.  0.
210  2.09  0.  0.
211  2.10  0.  0.
212  2.11  0.  0.
213  2.12  0.  0.
214  2.13  0.  0.
215  2.14  0.  0.
216  2.15  0.  0.
217  2.16  0.  0.
218  2.17  0.  0.
219  2.18  0.  0.
220  2.19  0.  0.
221  2.20  0.  0.
222  2.21  0.  0.
223  2.22  0.  0.
224  2.23  0.  0.
225  2.24  0.  0.
226  2.25  0.  0.
227  2.26  0.  0.
228  2.27  0.  0.
229  2.28  0.  0.
230  2.29  0.  0.
231  2.30  0.  0.
232  2.31  0.  0.
233  2.32  0.  0.
234  2.33  0.  0.
235  2.34  0.  0.
236  2.35  0.  0.
237  2.36  0.  0.
238  2.37  0.  0.
239  2.38  0.  0.
240  2.39  0.  0.
241  2.40  0.  0.
242  2.41  0.  0.
243  2.42  0.  0.
244  2.43  0.  0.
245  2.44  0.  0.
246  2.45  0.  0.
247  2.46  0.  0.
248  2.47  0.  0.
249  2.48  0.  0.
250  2.49  0.  0.
251  2.50  0.  0.
252  2.51  0.  0.
253  2.52  0.  0.
254  2.53  0.  0.
255  2.54  0.  0.
256  2.55  0.  0.
257  2.56  0.  0.
258  2.57  0.  0.
259  2.58  0.  0.
260  2.59  0.  0.
261  2.60  0.  0.
262  2.61  0.  0.
263  2.62  0.  0.
264  2.63  0.  0.
265  2.64  0.  0.
266  2.65  0.  0.
267  2.66  0.  0.
268  2.67  0.  0.
269  2.68  0.  0.
270  2.69  0.  0.
271  2.70  0.  0.
272  2.71  0.  0.
273  2.72  0.  0.
274  2.73  0.  0.
275  2.74  0.  0.
276  2.75  0.  0.
277  2.76  0.  0.
278  2.77  0.  0.
279  2.78  0.  0.
280  2.79  0.  0.
281  2.80  0.  0.
282  2.81  0.  0.
283  2.82  0.  0.
284  2.83  0.  0.
285  2.84  0.  0.
286  2.85  0.  0.
287  2.86  0.  0.
288  2.87  0.  0.
289  2.88  0.  0.
290  2.89  0.  0.
291  2.90  0.  0.
292  2.91  0.  0.
293  2.92  0.  0.
294  2.93  0.  0.
295  2.94  0.  0.
296  2.95  0.  0.
297  2.96  0.  0.
298  2.97  0.  0.
299  2.98  0.  0.
300  2.99  0.  0.
301  3.00  0.  0.
302  3.01  0.  0.
303  3.02  0.  0.
304  3.03  0.  0.
305  3.04  0.  0.
306  3.05  0.  0.
307  3.06  0.  0.
308  3.07  0.  0.
309  3.08  0.  0.
310  3.09  0.  0.
311  3.10  0.  0.
312  3.11  0.  0.
313  3.12  0.  0.
314  3.13  0.  0.
315  3.14  0.  0.
316  3.15  0.  0.
317  3.16  0.  0.
318  3.17  0.  0.
319  3.18  0.  0.
320  3.19  0.  0.
321  3.20  0.  0.
322  3.21  0.  0.
323  3.22  0.  0.
324  3.23  0.  0.
325  3.24  0.  0.
326  3.25  0.  0.
327  3.26  0.  0.
328  3.27  0.  0.
329  3.28  0.  0.
330  3.29  0.  0.
331  3.30  0.  0.
332  3.31  0.  0.
333  3.32  0.  0.
334  3.33  0.  0.
335  3.34  0.  0.
336  3.35  0.  0.
337  3.36  0.  0.
338  3.37  0.  0.
339  3.38  0.  0.
340  3.39  0.  0.
341  3.40  0.  0.
342  3.41  0.  0.
343  3.42  0.  0.
344  3.43  0.  0.
345  3.44  0.  0.
346  3.45  0.  0.
347  3.46  0.  0.
348  3.47  0.  0.
349  3.48  0.  0.
350  3.49  0.  0.
351  3.50  0.  0.
352  3.51  0.  0.
353  3.52  0.  0.
354  3.53  0.  0.
355  3.54  0.  0.
356  3.55  0.  0.
357  3.56  0.  0.
358  3.57  0.  0.
359  3.58  0.  0.
360  3.59  0.  0.
361  3.60  0.  0.
362  3.61  0.  0.
363  3.62  0.  0.
364  3.63  0.  0.
365  3.64  0.  0.
366  3.65  0.  0.
367  3.66  0.  0.
368  3.67  0.  0.
369  3.68  0.  0.
370  3.69  0.  0.
371  3.70  0.  0.
372  3.71  0.  0.
373  3.72  0.  0.
374  3.73  0.  0.
375  3.74  0.  0.
376  3.75  0.  0.
377  3.76  0.  0.
378  3.77  0.  0.
379  3.78  0.  0.
380  3.79  0.  0.
381  3.80  0.  0.
382  3.81  0.  0.
383  3.82  0.  0.
384  3.83  0.  0.
385  3.84  0.  0.
386  3.85  0.  0.
387  3.86  0.  0.
388  3.87  0.  0.
389  3.88  0.  0.
390  3.89  0.  0.
391  3.90  0.  0.
392  3.91  0.  0.
393  3.92  0.  0.
394  3.93  0.  0.
395  3.94  0.  0.
396  3.95  0.  0.
397  3.96  0.  0.
398  3.97  0.  0.
399  3.98  0.  0.
400  3.99  0.  0.
401  4.00  0.  0.
402  4.01  0.  0.
403  4.02  0.  0.
404  4.03  0.  0.
405  4.04  0.  0.
406  4.05  0.  0.
407  4.06  0.  0.
408  4.07  0.  0.
409  4.08  0.  0.
410  4.09  0.  0.
411  4.10  0.  0.
412  4.11  0.  0.
413  4.12  0.  0.
414  4.13  0.  0.
415  4.14  0.  0.
416  4.15  0.  0.
417  4.16  0.  0.
418  4.17  0.  0.
419  4.18  0.  0.
420  4.19  0.  0.
421  4.20  0.  0.
422  4.21  0.  0.
423  4.22  0.  0.
424  4.23  0.  0.
425  4.24  0.  0.
426  4.25  0.  0.
427  4.26  0.  0.
428  4.27  0.  0.
429  4.28  0.  0.
430  4.29  0.  0.
431  4.30  0.  0.
432  4.31  0.  0.
433  4.32  0.  0.
434  4.33  0.  0.
435  4.34  0.  0.
436  4.35  0.  0.
437  4.36  0.  0.
438  4.37  0.  0.
439  4.38  0.  0.
440  4.39  0.  0.
441  4.40  0.  0.
442  4.41  0.  0.
443  4.42  0.  0.
444  4.43  0.  0.
445  4.44  0.  0.
446  4.45  0.  0.
447  4.46  0.  0.
448  4.47  0.  0.
449  4.48  0.  0.
450  4.49  0.  0.
451  4.50  0.  0.
452  4.51  0.  0.
453  4.52  0.  0.
454  4.53  0.  0.
455  4.54  0.  0.
456  4.55  0.  0.
457  4.56  0.  0.
458  4.57  0.  0.
459  4.58  0.  0.
460  4.59  0.  0.
461  4.60  0.  0.
462  4.61  0.  0.
463  4.62  0.  0.
464  4.63  0.  0.
465  4.64  0.  0.
466  4.65  0.  0.
467  4.66  0.  0.
468  4.67  0.  0.
469  4.68  0.  0.
470  4.69  0.  0.
471  4.70  0.  0.
472  4.71  0.  0.
473  4.72  0.  0.
474  4.73  0.  0.
475  4.74  0.  0.
476  4.75  0.  0.
477  4.76  0.  0.
478  4.77  0.  0.
479  4.78  0.  0.
480  4.79  0.  0.
481  4.80  0.  0.
482  4.81  0.  0.
483  4.82  0.  0.
484  4.83  0.  0.
485  4.84  0.  0.
486  4.85  0.  0.
487  4.86  0.  0.
488  4.87  0.  0.
489  4.88  0.  0.
490  4.89  0.  0.
491  4.90  0.  0.
492  4.91  0.  0.
493  4.92  0.  0.
494  4.93  0.  0.
495  4.94  0.  0.
496  4.95  0.  0.
497  4.96  0.  0.
498  4.97  0.  0.
499  4.98  0.  0.
500  4.99  0.  0.
501  5.00  0.  0.
502  5.01  0.  0.
503  5.02  0.  0.
504  5.03  0.  0.
505  5.04  0.  0.
506  5.05  0.  0.
507  5.06  0.  0.
508  5.07  0.  0.
509  5.08  0.  0.
510  5.09  0.  0.
511  5.10  0.  0.
512  5.11  0.  0.
513  5.12  0.  0.
514  5.13  0.  0.
515  5.14  0.  0.
516  5.15  0.  0.
517  5.16  0.  0.
518  5.17  0.  0.
519  5.18  0.  0.
520  5.19  0.  0.
521  5.20  0.  0.
522  5.21  0.  0.
523  5.22  0.  0.
524  5.23  0.  0.
525  5.24  0.  0.
526  5.25  0.  0.
527  5.26  0.  0.
528  5.27  0.  0.
529  5.28  0.  0.
530  5.29  0.  0.
531  5.30  0.  0.
532  5.31  0.  0.
533  5.32  0.  0.
534  5.33  0.  0.
535  5.34  0.  0.
536  5.35  0.  0.
537  5.36  0.  0.
538  5.37  0.  0.
539  5.38  0.  0.
540  5.39  0.  0.
541  5.40  0.  0.
542  5.41  0.  0.
543  5.42  0.  0.
544  5.43  0.  0.
545  5.44  0.  0.
546  5.45  0.  0.
547  5.46  0.  0.
548  5.47  0.  0.
549  5.48  0.  0.
550  5.49  0.  0.
551  5.50  0.  0.
552  5.51  0.  0.
553  5.52  0.  0.
554  5.53  0.  0.
555  5.54  0.  0.
556  5.55  0.  0.
557  5.56  0.  0.
558  5.57  0.  0.
559  5.58  0.  0.
560  5.59  0.  0.
561  5.60  0.  0.
562  5.61  0.  0.
563  5.62  0.  0.
564  5.63  0.  0.
565  5.64  0.  0.
566  5.65  0.  0.
567  5.66  0.  0.
568  5.67  0.  0.
569  5.68  0.  0.
570  5.69  0.  0.
571  5.70  0.  0.
572  5.71  0.  0.
573  5.72  0.  0.
574  5.73  0.  0.
575  5.74  0.  0.
576  5.75  0.  0.
577  5.76  0.  0.
578  5.77  0.  0.
579  5.78  0.  0.
580  5.79  0.  0.
581  5.80  0.  0.
582  5.81  0.  0.
583  5.82  0.  0.
584  5.83  0.  0.
585  5.84  0.  0.
586  5.85  0.  0.
587  5.86  0.  0.
588  5.87  0.  0.
589  5.88  0.  0.
590  5.89  0.  0.
591  5.90  0.  0.
592  5.91  0.  0.
593  5.92  0.  0.
594  5.93  0.  0.
595  5.94  0.  0.
596  5.95  0.  0.
597  5.96  0.  0.
598  5.97  0.  0.
599  5.98  0.  0.
600  5.99  0.  0.
1                         6.6191629806249E+00  5.4633735341860E-01
1  0.0000000000000E+00  9.3569046955011E-10 -5.1739850320809E-09
2  1.0000000000000E-02  1.1507509475983E-03 -1.1034883883918E-03
3  2.0000000000000E-02  4.5983459888846E-03 -4.4005216051383E-03
4  3.0000000000000E-02  1.0328849713000E-02 -9.8509945795151E-03
5  4.0000000000000E-02  1.8319162544583E-02 -1.7388698492991E-02
6  5.0000000000000E-02  2.8537208039726E-02 -2.6922259950464E-02
7  6.0000000000000E-02  4.0942191395341E-02 -3.8336435430597E-02
8  7.0000000000000E-02  5.5484925539457E-02 -5.1493741009683E-02
9  8.0000000000000E-02  7.2108220234237E-02 -6.6236392179498E-02
10  9.0000000000000E-02  9.0747328762193E-02 -8.2388523800246E-02
11  1.0000000000000E-01  1.1133044599307E-01 -9.9758655920324E-02
12  1.1000000000000E-01  1.3377925095661E-01 -1.1814236742223E-01
13  1.2000000000000E-01  1.5800948648615E-01 -1.3732513627851E-01
14  1.3000000000000E-01  1.8393156805808E-01 -1.5708530267287E-01
15  1.4000000000000E-01  2.1145121364071E-01 -1.7719710939925E-01
16  1.5000000000000E-01  2.4047008618682E-01 -1.9743377282462E-01
17  1.6000000000000E-01  2.7088644036080E-01 -2.1757053730887E-01
18  1.7000000000000E-01  3.0259576518387E-01 -2.3738766632131E-01
19  1.8000000000000E-01  3.3549141450766E-01 -2.5667332457569E-01
20  1.9000000000000E-01  3.6946521758381E-01 -2.7522630730526E-01
21  2.0000000000000E-01  4.0440806247856E-01 -2.9285857528966E-01
22  2.1000000000000E-01  4.4021044567881E-01 -3.0939755738688E-01
23  2.2000000000000E-01  4.7676298193935E-01 -3.2468818606700E-01
24  2.3000000000000E-01  5.1395686921829E-01 -3.3859463573138E-01
25  2.4000000000000E-01  5.5168430442510E-01 -3.5100173836452E-01
26  2.5000000000000E-01  5.8983884664909E-01 -3.6181605622967E-01
27  2.6000000000000E-01  6.2831572552846E-01 -3.7096659680417E-01
28  2.7000000000000E-01  6.6701209344577E-01 -3.7840516086800E-01
29  2.8000000000000E-01  7.0582722127562E-01 -3.8410632052018E-01
30  2.9000000000000E-01  7.4466263844879E-01 -3.8806702980892E-01
31  3.0000000000000E-01  7.8342221911426E-01 -3.9030587652987E-01
32  3.1000000000000E-01  8.2201221716058E-01 -3.9086198947852E-01
33  3.2000000000000E-01  8.6034125378301E-01 -3.8979362094725E-01
34  3.3000000000000E-01  8.9832026213745E-01 -3.8717642944707E-01
35  3.4000000000000E-01  9.3586239439078E-01 -3.8310149242487E-01
36  3.5000000000000E-01  9.7288289714717E-01 -3.7767308306371E-01
37  3.6000000000000E-01  1.0092989617886E+00 -3.7100624902616E-01
38  3.7000000000000E-01  1.0450295567060E+00 -3.6322423416771E-01
39  3.8000000000000E-01  1.0799952487047E+00 -3.5445578675874E-01
40  3.9000000000000E-01  1.1141180210454E+00 -3.4483239956708E-01
41  4.0000000000000E-01  1.1473210956112E+00 -3.3448552823995E-01
42  4.1000000000000E-01  1.1795287665937E+00 -3.2354383476451E-01
43  4.2000000000000E-01  1.2106662528420E+00 -3.1213050237496E-01
44  4.3000000000000E-01  1.2406595756443E+00 -3.0036066711525E-01
45  4.4000000000000E-01  1.2694354681997E+00 -2.8833900937851E-01
46  4.5000000000000E-01  1.2969213224138E+00 -2.7615754615565E-01
47  4.6000000000000E-01  1.3230451779048E+00 -2.6389366147673E-01
48  4.7000000000000E-01  1.3477357572719E+00 -2.5160840867120E-01
49  4.8000000000000E-01  1.3709225507502E+00 -2.3934511366717E-01
50  4.9000000000000E-01  1.3925359523828E+00 -2.2712830366663E-01
51  5.0000000000000E-01  1.4125074487905E+00 -2.1496298024924E-01
52  5.1000000000000E-01  1.4307698605409E+00 -2.0283425035872E-01
53  5.2000000000000E-01  1.4472576350147E+00 -1.9070732280041E-01
54  5.3000000000000E-01  1.4619071885726E+00 -1.7852787192201E-01
55  5.4000000000000E-01  1.4746572947509E+00 -1.6622276415699E-01
56  5.5000000000000E-01  1.4854495141773E+00 -1.5370113717890E-01
57  5.6000000000000E-01  1.4942286609246E+00 -1.4085581564140E-01
58  5.7000000000000E-01  1.5009432991201E+00 -1.2756504195688E-01
59  5.8000000000000E-01  1.5055462628232E+00 -1.1369449538668E-01
60  5.9000000000000E-01  1.5079951914852E+00 -9.9099567962923E-02
61  6.0000000000000E-01  1.5082530727303E+00 -8.3627861514033E-02
62  6.1000000000000E-01  1.5062887837543E+00 -6.7121866393127E-02
63  6.2000000000000E-01  1.5020776223359E+00 -4.9421779472260E-02
64  6.3000000000000E-01  1.4956018183064E+00 -3.0368416616309E-02
65  6.4000000000000E-01  1.4868510163259E+00 -9.8061732273098E-03
66  6.5000000000000E-01  1.4758227209730E+00  1.2414014417597E-02
67  6.6000000000000E-01  1.4625226954736E+00  3.6431754409539E-02
68  6.7000000000000E-01  1.4469653058553E+00  6.2374377732704E-02
69  6.8000000000000E-01  1.4291738029360E+00  9.0354255332400E-02
70  6.9000000000000E-01  1.4091805353008E+00  1.2046629681009E-01
71  7.0000000000000E-01  1.3870270873048E+00  1.5278567094502E-01
72  7.1000000000000E-01  1.3627643371340E+00  1.8736578469939E-01
73  7.2000000000000E-01  1.3364524310499E+00  2.2423655322039E-01
74  7.3000000000000E-01  1.3081606711190E+00  2.6340298867603E-01
75  7.4000000000000E-01  1.2779673149747E+00  3.0484413062974E-01
76  7.5000000000000E-01  1.2459592874385E+00  3.4851233515653E-01
77  7.6000000000000E-01  1.2122318051442E+00  3.9433293412221E-01
78  7.7000000000000E-01  1.1768879166169E+00  4.4220427008495E-01
79  7.8000000000000E-01  1.1400379615568E+00  4.9199810623339E-01
80  7.9000000000000E-01  1.1017989543279E+00  5.4356040475219E-01
81  8.0000000000000E-01  1.0622938978482E+00  5.9671246110428E-01
82  8.1000000000000E-01  1.0216510351873E+00  6.5125237604229E-01
83  8.2000000000000E-01  9.8000304718672E-01  7.0695684180349E-01
84  8.3000000000000E-01  9.3748620531094E-01  7.6358321400140E-01
85  8.4000000000000E-01  8.9423948969422E-01  8.2087183628200E-01
86  8.5000000000000E-01  8.5040368295365E-01  8.7854858094845E-01
87  8.6000000000000E-01  8.0612045078784E-01  9.3632756553937E-01
88  8.7000000000000E-01  7.6153142065584E-01  9.9391400283307E-01
89  8.8000000000000E-01  7.1677726993012E-01  1.0510071399904E+00
90  8.9000000000000E-01  6.7199683483524E-01  1.1073032415756E+00
91  9.0000000000000E-01  6.2732625121850E-01  1.1624985710321E+00
92  9.1000000000000E-01  5.8289813775223E-01  1.2162923258419E+00
93  9.2000000000000E-01  5.3884083154421E-01  1.2683894830645E+00
94  9.3000000000000E-01  4.9527768533889E-01  1.3185035142074E+00
95  9.4000000000000E-01  4.5232643453894E-01  1.3663589313971E+00
96  9.5000000000000E-01  4.1009864117553E-01  1.4116936305505E+00
97  9.6000000000000E-01  3.6869922072195E-01  1.4542610016284E+00
98  9.7000000000000E-01  3.2822605629576E-01  1.4938317810229E+00
99  9.8000000000000E-01  2.8876970334904E-01  1.5301956265950E+00
100  9.9000000000000E-01  2.5041318642447E-01  1.5631624017617E+00
101  1.0000000000000E+00  2.1323188798041E-01  1.5925631612130E+00
102  1.0100000000000E+00  1.7729352768448E-01  1.6182508372323E+00
103  1.0200000000000E+00  1.4265822896602E-01  1.6401006320589E+00
104  1.0300000000000E+00  1.0937866802912E-01  1.6580101281804E+00
105  1.0400000000000E+00  7.7500298987243E-02  1.6718991347173E+00
106  1.0500000000000E+00  4.7061647310217E-02  1.6817092940673E+00
107  1.0600000000000E+00  1.8094662403597E-02  1.6874034785741E+00
108  1.0700000000000E+00 -9.3748811054297E-03  1.6889650120396E+00
109  1.0800000000000E+00 -3.5326944899965E-02  1.6863967553090E+00
110  1.0900000000000E+00 -5.9746763769526E-02  1.6797200987806E+00
111  1.1000000000000E+00 -8.2624370842288E-02  1.6689739074175E+00
112  1.1100000000000E+00 -1.0395412492903E-01  1.6542134655568E+00
113  1.1200000000000E+00 -1.2373425391442E-01  1.6355094694009E+00
114  1.1300000000000E+00 -1.4196642812592E-01  1.6129471144341E+00
115  1.1400000000000E+00 -1.5865537732080E-01  1.5866253230496E+00
116  1.1500000000000E+00 -1.7380856433274E-01  1.5566561542529E+00
117  1.1600000000000E+00 -1.8743592750096E-01  1.5231644324160E+00
118  1.1700000000000E+00 -1.9954970273375E-01  1.4862876254902E+00
119  1.1800000000000E+00 -2.1016433443439E-01  1.4461759948822E+00
120  1.1900000000000E+00 -2.1929648250135E-01  1.4029930291540E+00
121  1.2000000000000E+00 -2.2696513020525E-01  1.3569161618195E+00
122  1.2100000000000E+00 -2.3319179491643E-01  1.3081377596725E+00
123  1.2200000000000E+00 -2.3800084037315E-01  1.2568663521206E+00
124  1.2300000000000E+00 -2.4141988546591E-01  1.2033280540400E+00
125  1.2400000000000E+00 -2.4348030027417E-01  1.1477681142739E+00
126  1.2500000000000E+00 -2.4421777537568E-01  1.0904524993117E+00
127  1.2600000000000E+00 -2.4367294519249E-01  1.0316693966087E+00
128  1.2700000000000E+00 -2.4189204029029E-01  9.7173049421687E-01
129  1.2800000000000E+00 -2.3892753714398E-01  9.1097186307251E-01
130  1.2900000000000E+00 -2.3483876682877E-01  8.4975423498960E-01
131  1.3000000000000E+00 -2.2969243635868E-01  7.8846243300804E-01
132  1.3100000000000E+00 -2.2356300797472E-01  7.2750367125432E-01
133  1.3200000000000E+00 -2.1653287251839E-01  6.6730439860595E-01
134  1.3300000000000E+00 -2.0869224300205E-01  6.0830531371370E-01