Ho    ONCVPSP-4.0.1  r_core=   2.00759   1.60898   1.90236   1.40216
67.0000     21.0000      250626    zatom,zion,pspd
8      11   3     4   600     0    pspcod,pspxc,lmax,lloc,mmax,r2well
5.99000000 10.60000000  0.00000000    rchrg fchrg qchrg
2     2     2     2     0    nproj
1     1           extension_switch
0                         7.4214169051417E+00  1.0036349287868E+00
1  0.0000000000000E+00  7.1425865222352E-11 -2.0256102351013E-10
2  1.0000000000000E-02  4.2165832071403E-02 -4.3509259640097E-03
3  2.0000000000000E-02  8.4307260164673E-02 -8.7285023235650E-03
4  3.0000000000000E-02  1.2639971684153E-01 -1.3158874896752E-02
5  4.0000000000000E-02  1.6841830972589E-01 -1.7667185695403E-02
6  5.0000000000000E-02  2.1033766397289E-01 -2.2277084341851E-02
7  6.0000000000000E-02  2.5213177061258E-01 -2.7010255325011E-02
8  7.0000000000000E-02  2.9377384264205E-01 -3.1885966136039E-02
9  8.0000000000000E-02  3.3523618066846E-01 -3.6920641121266E-02
10  9.0000000000000E-02  3.7649004981712E-01 -4.2127465640271E-02
11  1.0000000000000E-01  4.1750556951477E-01 -4.7516024822117E-02
12  1.1000000000000E-01  4.5825161763896E-01 -5.3091980875528E-02
13  1.2000000000000E-01  4.9869575039080E-01 -5.8856792532159E-02
14  1.3000000000000E-01  5.3880413910228E-01 -6.4807479789513E-02
15  1.4000000000000E-01  5.7854152503107E-01 -7.0936436675155E-02
16  1.5000000000000E-01  6.1787119302719E-01 -7.7231294280777E-02
17  1.6000000000000E-01  6.5675496477852E-01 -8.3674835817570E-02
18  1.7000000000000E-01  6.9515321215714E-01 -9.0244964928062E-02
19  1.8000000000000E-01  7.3302489099766E-01 -9.6914727958372E-02
20  1.9000000000000E-01  7.7032759544401E-01 -1.0365239035442E-01
21  2.0000000000000E-01  8.0701763280329E-01 -1.1042156680001E-01
22  2.1000000000000E-01  8.4305011864751E-01 -1.1718140417033E-01
23  2.2000000000000E-01  8.7837909170671E-01 -1.2388681583510E-01
24  2.3000000000000E-01  9.1295764790255E-01 -1.3048876531781E-01
25  2.4000000000000E-01  9.4673809268183E-01 -1.3693459680533E-01
26  2.5000000000000E-01  9.7967211062548E-01 -1.4316840951150E-01
27  2.6000000000000E-01  1.0117109511335E+00 -1.4913147243354E-01
28  2.7000000000000E-01  1.0428056288196E+00 -1.5476267560615E-01
29  2.8000000000000E-01  1.0729071370960E+00 -1.5999901355954E-01
30  2.9000000000000E-01  1.1019666732838E+00 -1.6477609632864E-01
31  3.0000000000000E-01  1.1299358734606E+00 -1.6902868304501E-01
32  3.1000000000000E-01  1.1567670551403E+00 -1.7269123287457E-01
33  3.2000000000000E-01  1.1824134657861E+00 -1.7569846784549E-01
34  3.3000000000000E-01  1.2068295350785E+00 -1.7798594194569E-01
35  3.4000000000000E-01  1.2299711288009E+00 -1.7949061075861E-01
36  3.5000000000000E-01  1.2517958021629E+00 -1.8015139585269E-01
37  3.6000000000000E-01  1.2722630503603E+00 -1.7990973814528E-01
38  3.7000000000000E-01  1.2913345541729E+00 -1.7871013452495E-01
39  3.8000000000000E-01  1.3089744184151E+00 -1.7650065213943E-01
40  3.9000000000000E-01  1.3251494010995E+00 -1.7323341493792E-01
41  4.0000000000000E-01  1.3398291312291E+00 -1.6886505729541E-01
42  4.1000000000000E-01  1.3529863132174E+00 -1.6335713984226E-01
43  4.2000000000000E-01  1.3645969160313E+00 -1.5667652297084E-01
44  4.3000000000000E-01  1.3746403452732E+00 -1.4879569389176E-01
45  4.4000000000000E-01  1.3830995965511E+00 -1.3969304355985E-01
46  4.5000000000000E-01  1.3899613886394E+00 -1.2935309028206E-01
47  4.6000000000000E-01  1.3952162751022E+00 -1.1776664735149E-01
48  4.7000000000000E-01  1.3988587332291E+00 -1.0493093261760E-01
49  4.8000000000000E-01  1.4008872293315E+00 -9.0849618499129E-02
50  4.9000000000000E-01  1.4013042596500E+00 -7.5532821566002E-02
51  5.0000000000000E-01  1.4001163663388E+00 -5.8997031454288E-02
52  5.1000000000000E-01  1.3973341282139E+00 -4.1264979527595E-02
53  5.2000000000000E-01  1.3929721261771E+00 -2.2365448352797E-02
54  5.3000000000000E-01  1.3870488834584E+00 -2.3330237107202E-03
55  5.4000000000000E-01  1.3795867810477E+00  1.8792208493304E-02
56  5.5000000000000E-01  1.3706119489163E+00  4.0965017425307E-02
57  5.6000000000000E-01  1.3601541338533E+00  6.4135431024367E-02
58  5.7000000000000E-01  1.3482465449597E+00  8.8249184031966E-02
59  5.8000000000000E-01  1.3349256780578E+00  1.1324820562835E-01
60  5.9000000000000E-01  1.3202311204704E+00  1.3907114145515E-01
61  6.0000000000000E-01  1.3042053378160E+00  1.6565390435057E-01
62  6.1000000000000E-01  1.2868934446424E+00  1.9293024772482E-01
63  6.2000000000000E-01  1.2683429608774E+00  2.2083235516290E-01
64  6.3000000000000E-01  1.2486035562206E+00  2.4929143956465E-01
65  6.4000000000000E-01  1.2277267847213E+00  2.7823834492317E-01
66  6.5000000000000E-01  1.2057658118914E+00  3.0760414370348E-01
67  6.6000000000000E-01  1.1827751367836E+00  3.3732072271909E-01
68  6.7000000000000E-01  1.1588103115221E+00  3.6732135041550E-01
69  6.8000000000000E-01  1.1339276608125E+00  3.9754121855779E-01
70  6.9000000000000E-01  1.1081840039640E+00  4.2791795148688E-01
71  7.0000000000000E-01  1.0816363819504E+00  4.5839207635284E-01
72  7.1000000000000E-01  1.0543417919951E+00  4.8890744805530E-01
73  7.2000000000000E-01  1.0263569321073E+00  5.1941162301757E-01
74  7.3000000000000E-01  9.9773795791019E-01  5.4985617639043E-01
75  7.4000000000000E-01  9.6854025399694E-01  5.8019695781995E-01
76  7.5000000000000E-01  9.3881822191545E-01  6.1039428151856E-01
77  7.6000000000000E-01  9.0862508673554E-01  6.4041304704326E-01
78  7.7000000000000E-01  8.7801272397685E-01  6.7022278790591E-01
79  7.8000000000000E-01  8.4703150848565E-01  6.9979764591103E-01
80  7.9000000000000E-01  8.1573018663914E-01  7.2911626993056E-01
81  8.0000000000000E-01  7.8415577303116E-01  7.5816163867541E-01
82  8.1000000000000E-01  7.5235347255350E-01  7.8692080790351E-01
83  8.2000000000000E-01  7.2036662853523E-01  8.1538458340575E-01
84  8.3000000000000E-01  6.8823669734021E-01  8.4354712202668E-01
85  8.4000000000000E-01  6.5600324955158E-01  8.7140546389857E-01
86  8.5000000000000E-01  6.2370399759450E-01  8.9895899998729E-01
87  8.6000000000000E-01  5.9137484936623E-01  9.2620887995777E-01
88  8.7000000000000E-01  5.5904998715759E-01  9.5315736625897E-01
89  8.8000000000000E-01  5.2676197086436E-01  9.7980714119347E-01
90  8.9000000000000E-01  4.9454186420330E-01  1.0061605745692E+00
91  9.0000000000000E-01  4.6241938236656E-01  1.0322189603212E+00
92  9.1000000000000E-01  4.3042305927281E-01  1.0579817312341E+00
93  9.2000000000000E-01  3.9858043230498E-01  1.0834456615822E+00
94  9.3000000000000E-01  3.6691824216492E-01  1.1086040681273E+00
95  9.4000000000000E-01  3.3546264522679E-01  1.1334460204721E+00
96  9.5000000000000E-01  3.0423943553398E-01  1.1579555722430E+00
97  9.6000000000000E-01  2.7327427336293E-01  1.1821110249779E+00
98  9.7000000000000E-01  2.4259291707031E-01  1.2058842369012E+00
99  9.8000000000000E-01  2.1222145475225E-01  1.2292399889890E+00
100  9.9000000000000E-01  1.8218653207494E-01  1.2521354208390E+00
101  1.0000000000000E+00  1.5251557248935E-01  1.2745195488751E+00
102  1.0100000000000E+00  1.2323698591946E-01  1.2963328793109E+00
103  1.0200000000000E+00  9.4380361916124E-02  1.3175071280746E+00
104  1.0300000000000E+00  6.5976643201115E-02  1.3379650595491E+00
105  1.0400000000000E+00  3.8058275488772E-02  1.3576204554943E+00
106  1.0500000000000E+00  1.0659329471816E-02  1.3763782248881E+00
107  1.0600000000000E+00 -1.6184409105114E-02  1.3941346646353E+00
108  1.0700000000000E+00 -4.2435385280504E-02  1.4107778801416E+00
109  1.0800000000000E+00 -6.8054260488043E-02  1.4261883736134E+00
110  1.0900000000000E+00 -9.2999941633917E-02  1.4402398066153E+00
111  1.1000000000000E+00 -1.1722965708836E-01  1.4527999418776E+00
112  1.1100000000000E+00 -1.4069908273572E-01  1.4637317675713E+00
113  1.1200000000000E+00 -1.6336252085123E-01  1.4728948052494E+00
114  1.1300000000000E+00 -1.8517313411352E-01  1.4801466003511E+00
115  1.1400000000000E+00 -2.0608323651713E-01  1.4853443915792E+00
116  1.1500000000000E+00 -2.2604464229994E-01  1.4883469525255E+00
117  1.1600000000000E+00 -2.4500907324795E-01  1.4890165956532E+00
118  1.1700000000000E+00 -2.6292862385872E-01  1.4872213250620E+00
119  1.1800000000000E+00 -2.7975628283779E-01  1.4828371203773E+00
120  1.1900000000000E+00 -2.9544650824195E-01  1.4757503295353E+00
121  1.2000000000000E+00 -3.0995585226624E-01  1.4658601431735E+00
122  1.2100000000000E+00 -3.2324363017962E-01  1.4530811177295E+00
123  1.2200000000000E+00 -3.3527262622279E-01  1.4373457081186E+00
124  1.2300000000000E+00 -3.4600982739844E-01  1.4186067640409E+00
125  1.2400000000000E+00 -3.5542717395467E-01  1.3968399363827E+00
126  1.2500000000000E+00 -3.6350231300584E-01  1.3720459318941E+00
127  1.2600000000000E+00 -3.7021933911339E-01  1.3442525452301E+00
128  1.2700000000000E+00 -3.7556950273208E-01  1.3135163874333E+00
129  1.2800000000000E+00 -3.7955186422670E-01  1.2799242190669E+00
130  1.2900000000000E+00 -3.8217386763149E-01  1.2435937843151E+00
131  1.3000000000000E+00 -3.8345180443737E-01  1.2046740293902E+00
132  1.3100000000000E+00 -3.8341113345192E-01  1.1633445745282E+00
133  1.3200000000000E+00 -3.8208661814903E-01  1.1198142936083E+00
134  1.3300000000000E+00 -3.7952223785566E-01  1.0743188388317E+00
135  1.3400000000000E+00 -3.7577082364048E-01  1.0271169300209E+00
136  1.3500000000000E+00 -3.7089336382304E-01  9.7848520881235E-01
137  1.3600000000000E+00 -3.6495791756164E-01  9.2871143713193E-01
138  1.3700000000000E+00 -3.5803806801502E-01  8.7808579691334E-01
139  1.3800000000000E+00 -3.5021083842824E-01  8.2689002014079E-01
140  1.3900000000000E+00 -3.4155398601671E-01  7.7538405133097E-01
141  1.4000000000000E+00 -3.3214262167593E-01  7.2379015598599E-01
142  1.4100000000000E+00 -3.2204509404904E-01  6.7227439181393E-01
143  1.4200000000000E+00 -3.1132399849768E-01  6.2095977538669E-01
144  1.4300000000000E+00 -3.0004214789821E-01  5.6996603013755E-01
145  1.4400000000000E+00 -2.8826366309193E-01  5.1941721775777E-01
146  1.4500000000000E+00 -2.7605365465746E-01  4.6944070066119E-01
147  1.4600000000000E+00 -2.6347793040391E-01  4.2016630597484E-01
148  1.4700000000000E+00 -2.5060268303453E-01  3.7172540726824E-01
149  1.4800000000000E+00 -2.3749416633349E-01  3.2424996807038E-01
150  1.4900000000000E+00 -2.2421836216615E-01  2.7787155350869E-01
151  1.5000000000000E+00 -2.1084064103277E-01  2.3272031877338E-01
152  1.5100000000000E+00 -1.9742541900134E-01  1.8892398334819E-01
153  1.5200000000000E+00 -1.8403581398193E-01  1.4660680050267E-01
154  1.5300000000000E+00 -1.7073330431801E-01  1.0588853150681E-01
155  1.5400000000000E+00 -1.5757739272689E-01  6.6883434277464E-02
156  1.5500000000000E+00 -1.4462527862285E-01  2.9699276183355E-02
157  1.5600000000000E+00 -1.3193154181903E-01 -5.5636193902353E-03
158  1.5700000000000E+00 -1.1954784054306E-01 -3.8813283299807E-02
159  1.5800000000000E+00 -1.0752262665109E-01 -6.9966958405923E-02
160  1.5900000000000E+00 -9.5900880675299E-02 -9.8951896503235E-02
161  1.6000000000000E+00 -8.4723869552067E-02 -1.2570608488019E-01
162  1.6100000000000E+00 -7.4028929042019E-02 -1.5017889659799E-01
163  1.6200000000000E+00 -6.3849273482172E-02 -1.7233165536999E-01
164  1.6300000000000E+00 -5.4213834609984E-02 -1.9213810977958E-01
165  1.6400000000000E+00 -4.5147131309526E-02 -2.0958481070913E-01
166  1.6500000000000E+00 -3.6669171770312E-02 -2.2467138714561E-01
167  1.6600000000000E+00 -2.8795389268812E-02 -2.3741071642423E-01
168  1.6700000000000E+00 -2.1536612492569E-02 -2.4782898589449E-01
169  1.6800000000000E+00 -1.4899071036875E-02 -2.5596564390460E-01
170  1.6900000000000E+00 -8.8844363662825E-03 -2.6187323910990E-01
171  1.7000000000000E+00 -3.4898982211280E-03 -2.6561714810171E-01
172  1.7100000000000E+00  1.2917238590237E-03 -2.6727519232746E-01
173  1.7200000000000E+00  5.4718345752365E-03 -2.6693714643482E-01
174  1.7300000000000E+00  9.0658834416780E-03 -2.6470414106980E-01
175  1.7400000000000E+00  1.2093153200947E-02 -2.6068796428292E-01
176  1.7500000000000E+00  1.4576517668946E-02 -2.5501026656105E-01
177  1.7600000000000E+00  1.6542170902762E-02 -2.4780167550506E-01
178  1.7700000000000E+00  1.8019329865329E-02 -2.3920082707982E-01
179  1.7800000000000E+00  1.9039912991991E-02 -2.2935332108571E-01
180  1.7900000000000E+00  1.9638197321554E-02 -2.1841060935134E-01
181  1.8000000000000E+00  1.9850457067577E-02 -2.0652882583127E-01
182  1.8100000000000E+00  1.9714586669211E-02 -1.9386756830442E-01
183  1.8200000000000E+00  1.9269711554307E-02 -1.8058864201736E-01
184  1.8300000000000E+00  1.8555789873242E-02 -1.6685477563311E-01
185  1.8400000000000E+00  1.7613209096052E-02 -1.5282832222913E-01
186  1.8500000000000E+00  1.6482379614092E-02 -1.3866995129896E-01
187  1.8600000000000E+00  1.5203331034274E-02 -1.2453735135530E-01
188  1.8700000000000E+00  1.3815314299229E-02 -1.1058395224386E-01
189  1.8800000000000E+00  1.2356406530282E-02 -9.6957657851333E-02
190  1.8900000000000E+00  1.0863139149925E-02 -8.3799652277832E-02
191  1.9000000000000E+00  9.3701415677392E-03 -7.1243254383612E-02
192  1.9100000000000E+00  7.9095380958646E-03 -5.9412108457132E-02
193  1.9200000000000E+00  6.5093055158468E-03 -4.8415428519137E-02
194  1.9300000000000E+00  5.1960675253204E-03 -3.8355615347681E-02
195  1.9400000000000E+00  3.9947214999698E-03 -2.9327201935208E-02
196  1.9500000000000E+00  2.9263782787649E-03 -2.1411093579052E-02
197  1.9600000000000E+00  2.0084560984996E-03 -1.4674713773467E-02
198  1.9700000000000E+00  1.2544674163018E-03 -9.1713359050659E-03
199  1.9800000000000E+00  6.7413169633586E-04 -4.9415137608439E-03
200  1.9900000000000E+00  2.7034128598612E-04 -1.9906841756409E-03
201  2.0000000000000E+00  5.4667288737737E-05 -4.0537713160729E-04
202  2.0100000000000E+00 -4.8845452721960E-06  3.6395399370075E-05
203  2.0200000000000E+00  2.3428844578734E-07 -1.7393518945167E-06
204  2.03  0. -0.
205  2.04 -0.  0.
206  2.05 -0. -0.
207  2.06  0.  0.
208  2.07  0.  0.
209  2.08  0.  0.
210  2.09  0.  0.
211  2.10  0.  0.
212  2.11  0.  0.
213  2.12  0.  0.
214  2.13  0.  0.
215  2.14  0.  0.
216  2.15  0.  0.
217  2.16  0.  0.
218  2.17  0.  0.
219  2.18  0.  0.
220  2.19  0.  0.
221  2.20  0.  0.
222  2.21  0.  0.
223  2.22  0.  0.
224  2.23  0.  0.
225  2.24  0.  0.
226  2.25  0.  0.
227  2.26  0.  0.
228  2.27  0.  0.
229  2.28  0.  0.
230  2.29  0.  0.
231  2.30  0.  0.
232  2.31  0.  0.
233  2.32  0.  0.
234  2.33  0.  0.
235  2.34  0.  0.
236  2.35  0.  0.
237  2.36  0.  0.
238  2.37  0.  0.
239  2.38  0.  0.
240  2.39  0.  0.
241  2.40  0.  0.
242  2.41  0.  0.
243  2.42  0.  0.
244  2.43  0.  0.
245  2.44  0.  0.
246  2.45  0.  0.
247  2.46  0.  0.
248  2.47  0.  0.
249  2.48  0.  0.
250  2.49  0.  0.
251  2.50  0.  0.
252  2.51  0.  0.
253  2.52  0.  0.
254  2.53  0.  0.
255  2.54  0.  0.
256  2.55  0.  0.
257  2.56  0.  0.
258  2.57  0.  0.
259  2.58  0.  0.
260  2.59  0.  0.
261  2.60  0.  0.
262  2.61  0.  0.
263  2.62  0.  0.
264  2.63  0.  0.
265  2.64  0.  0.
266  2.65  0.  0.
267  2.66  0.  0.
268  2.67  0.  0.
269  2.68  0.  0.
270  2.69  0.  0.
271  2.70  0.  0.
272  2.71  0.  0.
273  2.72  0.  0.
274  2.73  0.  0.
275  2.74  0.  0.
276  2.75  0.  0.
277  2.76  0.  0.
278  2.77  0.  0.
279  2.78  0.  0.
280  2.79  0.  0.
281  2.80  0.  0.
282  2.81  0.  0.
283  2.82  0.  0.
284  2.83  0.  0.
285  2.84  0.  0.
286  2.85  0.  0.
287  2.86  0.  0.
288  2.87  0.  0.
289  2.88  0.  0.
290  2.89  0.  0.
291  2.90  0.  0.
292  2.91  0.  0.
293  2.92  0.  0.
294  2.93  0.  0.
295  2.94  0.  0.
296  2.95  0.  0.
297  2.96  0.  0.
298  2.97  0.  0.
299  2.98  0.  0.
300  2.99  0.  0.
301  3.00  0.  0.
302  3.01  0.  0.
303  3.02  0.  0.
304  3.03  0.  0.
305  3.04  0.  0.
306  3.05  0.  0.
307  3.06  0.  0.
308  3.07  0.  0.
309  3.08  0.  0.
310  3.09  0.  0.
311  3.10  0.  0.
312  3.11  0.  0.
313  3.12  0.  0.
314  3.13  0.  0.
315  3.14  0.  0.
316  3.15  0.  0.
317  3.16  0.  0.
318  3.17  0.  0.
319  3.18  0.  0.
320  3.19  0.  0.
321  3.20  0.  0.
322  3.21  0.  0.
323  3.22  0.  0.
324  3.23  0.  0.
325  3.24  0.  0.
326  3.25  0.  0.
327  3.26  0.  0.
328  3.27  0.  0.
329  3.28  0.  0.
330  3.29  0.  0.
331  3.30  0.  0.
332  3.31  0.  0.
333  3.32  0.  0.
334  3.33  0.  0.
335  3.34  0.  0.
336  3.35  0.  0.
337  3.36  0.  0.
338  3.37  0.  0.
339  3.38  0.  0.
340  3.39  0.  0.
341  3.40  0.  0.
342  3.41  0.  0.
343  3.42  0.  0.
344  3.43  0.  0.
345  3.44  0.  0.
346  3.45  0.  0.
347  3.46  0.  0.
348  3.47  0.  0.
349  3.48  0.  0.
350  3.49  0.  0.
351  3.50  0.  0.
352  3.51  0.  0.
353  3.52  0.  0.
354  3.53  0.  0.
355  3.54  0.  0.
356  3.55  0.  0.
357  3.56  0.  0.
358  3.57  0.  0.
359  3.58  0.  0.
360  3.59  0.  0.
361  3.60  0.  0.
362  3.61  0.  0.
363  3.62  0.  0.
364  3.63  0.  0.
365  3.64  0.  0.
366  3.65  0.  0.
367  3.66  0.  0.
368  3.67  0.  0.
369  3.68  0.  0.
370  3.69  0.  0.
371  3.70  0.  0.
372  3.71  0.  0.
373  3.72  0.  0.
374  3.73  0.  0.
375  3.74  0.  0.
376  3.75  0.  0.
377  3.76  0.  0.
378  3.77  0.  0.
379  3.78  0.  0.
380  3.79  0.  0.
381  3.80  0.  0.
382  3.81  0.  0.
383  3.82  0.  0.
384  3.83  0.  0.
385  3.84  0.  0.
386  3.85  0.  0.
387  3.86  0.  0.
388  3.87  0.  0.
389  3.88  0.  0.
390  3.89  0.  0.
391  3.90  0.  0.
392  3.91  0.  0.
393  3.92  0.  0.
394  3.93  0.  0.
395  3.94  0.  0.
396  3.95  0.  0.
397  3.96  0.  0.
398  3.97  0.  0.
399  3.98  0.  0.
400  3.99  0.  0.
401  4.00  0.  0.
402  4.01  0.  0.
403  4.02  0.  0.
404  4.03  0.  0.
405  4.04  0.  0.
406  4.05  0.  0.
407  4.06  0.  0.
408  4.07  0.  0.
409  4.08  0.  0.
410  4.09  0.  0.
411  4.10  0.  0.
412  4.11  0.  0.
413  4.12  0.  0.
414  4.13  0.  0.
415  4.14  0.  0.
416  4.15  0.  0.
417  4.16  0.  0.
418  4.17  0.  0.
419  4.18  0.  0.
420  4.19  0.  0.
421  4.20  0.  0.
422  4.21  0.  0.
423  4.22  0.  0.
424  4.23  0.  0.
425  4.24  0.  0.
426  4.25  0.  0.
427  4.26  0.  0.
428  4.27  0.  0.
429  4.28  0.  0.
430  4.29  0.  0.
431  4.30  0.  0.
432  4.31  0.  0.
433  4.32  0.  0.
434  4.33  0.  0.
435  4.34  0.  0.
436  4.35  0.  0.
437  4.36  0.  0.
438  4.37  0.  0.
439  4.38  0.  0.
440  4.39  0.  0.
441  4.40  0.  0.
442  4.41  0.  0.
443  4.42  0.  0.
444  4.43  0.  0.
445  4.44  0.  0.
446  4.45  0.  0.
447  4.46  0.  0.
448  4.47  0.  0.
449  4.48  0.  0.
450  4.49  0.  0.
451  4.50  0.  0.
452  4.51  0.  0.
453  4.52  0.  0.
454  4.53  0.  0.
455  4.54  0.  0.
456  4.55  0.  0.
457  4.56  0.  0.
458  4.57  0.  0.
459  4.58  0.  0.
460  4.59  0.  0.
461  4.60  0.  0.
462  4.61  0.  0.
463  4.62  0.  0.
464  4.63  0.  0.
465  4.64  0.  0.
466  4.65  0.  0.
467  4.66  0.  0.
468  4.67  0.  0.
469  4.68  0.  0.
470  4.69  0.  0.
471  4.70  0.  0.
472  4.71  0.  0.
473  4.72  0.  0.
474  4.73  0.  0.
475  4.74  0.  0.
476  4.75  0.  0.
477  4.76  0.  0.
478  4.77  0.  0.
479  4.78  0.  0.
480  4.79  0.  0.
481  4.80  0.  0.
482  4.81  0.  0.
483  4.82  0.  0.
484  4.83  0.  0.
485  4.84  0.  0.
486  4.85  0.  0.
487  4.86  0.  0.
488  4.87  0.  0.
489  4.88  0.  0.
490  4.89  0.  0.
491  4.90  0.  0.
492  4.91  0.  0.
493  4.92  0.  0.
494  4.93  0.  0.
495  4.94  0.  0.
496  4.95  0.  0.
497  4.96  0.  0.
498  4.97  0.  0.
499  4.98  0.  0.
500  4.99  0.  0.
501  5.00  0.  0.
502  5.01  0.  0.
503  5.02  0.  0.
504  5.03  0.  0.
505  5.04  0.  0.
506  5.05  0.  0.
507  5.06  0.  0.
508  5.07  0.  0.
509  5.08  0.  0.
510  5.09  0.  0.
511  5.10  0.  0.
512  5.11  0.  0.
513  5.12  0.  0.
514  5.13  0.  0.
515  5.14  0.  0.
516  5.15  0.  0.
517  5.16  0.  0.
518  5.17  0.  0.
519  5.18  0.  0.
520  5.19  0.  0.
521  5.20  0.  0.
522  5.21  0.  0.
523  5.22  0.  0.
524  5.23  0.  0.
525  5.24  0.  0.
526  5.25  0.  0.
527  5.26  0.  0.
528  5.27  0.  0.
529  5.28  0.  0.
530  5.29  0.  0.
531  5.30  0.  0.
532  5.31  0.  0.
533  5.32  0.  0.
534  5.33  0.  0.
535  5.34  0.  0.
536  5.35  0.  0.
537  5.36  0.  0.
538  5.37  0.  0.
539  5.38  0.  0.
540  5.39  0.  0.
541  5.40  0.  0.
542  5.41  0.  0.
543  5.42  0.  0.
544  5.43  0.  0.
545  5.44  0.  0.
546  5.45  0.  0.
547  5.46  0.  0.
548  5.47  0.  0.
549  5.48  0.  0.
550  5.49  0.  0.
551  5.50  0.  0.
552  5.51  0.  0.
553  5.52  0.  0.
554  5.53  0.  0.
555  5.54  0.  0.
556  5.55  0.  0.
557  5.56  0.  0.
558  5.57  0.  0.
559  5.58  0.  0.
560  5.59  0.  0.
561  5.60  0.  0.
562  5.61  0.  0.
563  5.62  0.  0.
564  5.63  0.  0.
565  5.64  0.  0.
566  5.65  0.  0.
567  5.66  0.  0.
568  5.67  0.  0.
569  5.68  0.  0.
570  5.69  0.  0.
571  5.70  0.  0.
572  5.71  0.  0.
573  5.72  0.  0.
574  5.73  0.  0.
575  5.74  0.  0.
576  5.75  0.  0.
577  5.76  0.  0.
578  5.77  0.  0.
579  5.78  0.  0.
580  5.79  0.  0.
581  5.80  0.  0.
582  5.81  0.  0.
583  5.82  0.  0.
584  5.83  0.  0.
585  5.84  0.  0.
586  5.85  0.  0.
587  5.86  0.  0.
588  5.87  0.  0.
589  5.88  0.  0.
590  5.89  0.  0.
591  5.90  0.  0.
592  5.91  0.  0.
593  5.92  0.  0.
594  5.93  0.  0.
595  5.94  0.  0.
596  5.95  0.  0.
597  5.96  0.  0.
598  5.97  0.  0.
599  5.98  0.  0.
600  5.99  0.  0.
1                         6.5444380421379E+00  5.2829840796782E-01
1  0.0000000000000E+00  1.1850615766473E-09 -6.3178582643264E-09
2  1.0000000000000E-02  1.1620014597004E-03 -1.1790327005337E-03
3  2.0000000000000E-02  4.6430009875872E-03 -4.7009823857045E-03
4  3.0000000000000E-02  1.0428029474233E-02 -1.0520629328466E-02
5  4.0000000000000E-02  1.8492289202042E-02 -1.8563355438099E-02
6  5.0000000000000E-02  2.8801377664774E-02 -2.8726253831220E-02
7  6.0000000000000E-02  4.1311596200843E-02 -4.0879657220844E-02
8  7.0000000000000E-02  5.5970338821742E-02 -5.4869060601367E-02
9  8.0000000000000E-02  7.2716555431950E-02 -7.0517407389440E-02
10  9.0000000000000E-02  9.1481282549294E-02 -8.7627702363877E-02
11  1.0000000000000E-01  1.1218823366359E-01 -1.0598590952654E-01
12  1.1000000000000E-01  1.3475444053249E-01 -1.2536408846557E-01
13  1.2000000000000E-01  1.5909093602119E-01 -1.4552371901595E-01
14  1.3000000000000E-01  1.8510346855842E-01 -1.6621916104250E-01
15  1.4000000000000E-01  2.1269323791403E-01 -1.8720119406494E-01
16  1.5000000000000E-01  2.4175764180948E-01 -2.0822058023879E-01
17  1.6000000000000E-01  2.7219102285484E-01 -2.2903159391808E-01
18  1.7000000000000E-01  3.0388540546468E-01 -2.4939546166325E-01
19  1.8000000000000E-01  3.3673121273758E-01 -2.6908365810791E-01
20  1.9000000000000E-01  3.7061795378417E-01 -2.8788100553786E-01
21  2.0000000000000E-01  4.0543487264758E-01 -3.0558852832478E-01
22  2.1000000000000E-01  4.4107155076728E-01 -3.2202601744234E-01
23  2.2000000000000E-01  4.7741845587741E-01 -3.3703426510750E-01
24  2.3000000000000E-01  5.1436743128865E-01 -3.5047693505632E-01
25  2.4000000000000E-01  5.5181212065937E-01 -3.6224203999268E-01
26  2.5000000000000E-01  5.8964832459738E-01 -3.7224300424158E-01
27  2.6000000000000E-01  6.2777428672693E-01 -3.8041929649004E-01
28  2.7000000000000E-01  6.6609090818322E-01 -3.8673662459603E-01
29  2.8000000000000E-01  7.0450189083693E-01 -3.9118669167388E-01
30  2.9000000000000E-01  7.4291381087867E-01 -3.9378651990294E-01
31  3.0000000000000E-01  7.8123612568691E-01 -3.9457735563898E-01
32  3.1000000000000E-01  8.1938111813757E-01 -3.9362317631424E-01
33  3.2000000000000E-01  8.5726378366949E-01 -3.9100882618197E-01
34  3.3000000000000E-01  8.9480166647491E-01 -3.8683781408316E-01
35  3.4000000000000E-01  9.3191465212083E-01 -3.8122981198816E-01
36  3.5000000000000E-01  9.6852472470715E-01 -3.7431789800073E-01
37  3.6000000000000E-01  1.0045556973173E+00 -3.6624559172409E-01
38  3.7000000000000E-01  1.0399329250043E+00 -3.5716373330925E-01
39  3.8000000000000E-01  1.0745830098707E+00 -3.4722726007606E-01
40  3.9000000000000E-01  1.1084335079376E+00 -3.3659193627529E-01
41  4.0000000000000E-01  1.1414126474535E+00 -3.2541109231560E-01
42  4.1000000000000E-01  1.1734490680684E+00 -3.1383242960017E-01
43  4.2000000000000E-01  1.2044715898953E+00 -3.0199494600474E-01
44  4.3000000000000E-01  1.2344090209007E+00 -2.9002603499998E-01
45  4.4000000000000E-01  1.2631900103322E+00 -2.7803880850950E-01
46  4.5000000000000E-01  1.2907429549959E+00 -2.6612968984579E-01
47  4.6000000000000E-01  1.3169959641728E+00 -2.5437631854448E-01
48  4.7000000000000E-01  1.3418768878169E+00 -2.4283580369283E-01
49  4.8000000000000E-01  1.3653134114365E+00 -2.3154335651161E-01
50  4.9000000000000E-01  1.3872332197347E+00 -2.2051132659368E-01
51  5.0000000000000E-01  1.4075642297126E+00 -2.0972865943493E-01
52  5.1000000000000E-01  1.4262348925297E+00 -1.9916078582570E-01
53  5.2000000000000E-01  1.4431745620044E+00 -1.8874994642141E-01
54  5.3000000000000E-01  1.4583139262432E+00 -1.7841594750034E-01
55  5.4000000000000E-01  1.4715854975385E+00 -1.6805733666770E-01
56  5.5000000000000E-01  1.4829241543939E+00 -1.5755298019893E-01
57  5.6000000000000E-01  1.4922677283469E+00 -1.4676401695094E-01
58  5.7000000000000E-01  1.4995576271847E+00 -1.3553615742180E-01
59  5.8000000000000E-01  1.5047394852063E+00 -1.2370229071355E-01
60  5.9000000000000E-01  1.5077638303961E+00 -1.1108535694972E-01
61  6.0000000000000E-01  1.5085867577549E+00 -9.7501438204848E-02
62  6.1000000000000E-01  1.5071705975878E+00 -8.2763017296203E-02
63  6.2000000000000E-01  1.5034845673047E+00 -6.6682350930962E-02
64  6.3000000000000E-01  1.4975053952280E+00 -4.9074901743310E-02
65  6.4000000000000E-01  1.4892179050526E+00 -2.9762772730637E-02
66  6.5000000000000E-01  1.4786155499446E+00 -8.5780875237730E-03
67  6.6000000000000E-01  1.4657008858075E+00  1.4633739195379E-02
68  6.7000000000000E-01  1.4504859739729E+00  4.0010894998370E-02
69  6.8000000000000E-01  1.4329927044797E+00  6.7672277880194E-02
70  6.9000000000000E-01  1.4132530321779E+00  9.7714866851005E-02
71  7.0000000000000E-01  1.3913091191119E+00  1.3021139811541E-01
72  7.1000000000000E-01  1.3672133779870E+00  1.6520838488974E-01
73  7.2000000000000E-01  1.3410284129756E+00  2.0272451315127E-01
74  7.3000000000000E-01  1.3128268556619E+00  2.4274943931777E-01
75  7.4000000000000E-01  1.2826910955148E+00  2.8524300912612E-01
76  7.5000000000000E-01  1.2507129059102E+00  3.3013490993288E-01
77  7.6000000000000E-01  1.2169929683546E+00  3.7732476141948E-01
78  7.7000000000000E-01  1.1816402991688E+00  4.2668264237309E-01
79  7.8000000000000E-01  1.1447715844494E+00  4.7805004396104E-01
80  7.9000000000000E-01  1.1065104306056E+00  5.3124123284670E-01
81  8.0000000000000E-01  1.0669865391436E+00  5.8604500073002E-01
82  8.1000000000000E-01  1.0263348156229E+00  6.4222677055953E-01
83  8.2000000000000E-01  9.8469442380447E-01  6.9953102385903E-01
84  8.3000000000000E-01  9.4220779694406E-01  7.5768400845221E-01
85  8.4000000000000E-01  8.9901961892511E-01  8.1639668143585E-01
86  8.5000000000000E-01  8.5527578846816E-01  8.7536783863418E-01
87  8.6000000000000E-01  8.1112237998467E-01  9.3428737902222E-01
88  8.7000000000000E-01  7.6670461475353E-01  9.9283965079166E-01
89  8.8000000000000E-01  7.2216585598591E-01  1.0507068248794E+00
90  8.9000000000000E-01  6.7764664100790E-01  1.1075722419081E+00
91  9.0000000000000E-01  6.3328376323303E-01  1.1631236796000E+00
92  9.1000000000000E-01  5.8920941582600E-01  1.2170564898061E+00
93  9.2000000000000E-01  5.4555040798464E-01  1.2690765573094E+00
94  9.3000000000000E-01  5.0242746360317E-01  1.3189030364656E+00
95  9.4000000000000E-01  4.5995461074273E-01  1.3662708264761E+00
96  9.5000000000000E-01  4.1823866884496E-01  1.4109327515639E+00
97  9.6000000000000E-01  3.7737883900291E-01  1.4526614184526E+00
98  9.7000000000000E-01  3.3746640087582E-01  1.4912507302350E+00
99  9.8000000000000E-01  2.9858451802557E-01  1.5265170428321E+00
100  9.9000000000000E-01  2.6080815159171E-01  1.5582999576807E+00
101  1.0000000000000E+00  2.2420408033698E-01  1.5864627519033E+00
102  1.0100000000000E+00  1.8883102321646E-01  1.6108924548790E+00
103  1.0200000000000E+00  1.5473985877986E-01  1.6314995877099E+00
104  1.0300000000000E+00  1.2197393393761E-01  1.6482175894257E+00
105  1.0400000000000E+00  9.0569452939058E-02  1.6610019607397E+00
106  1.0500000000000E+00  6.0555935849975E-02  1.6698291626374E+00
107  1.0600000000000E+00  3.1956734406740E-02  1.6746953129061E+00
108  1.0700000000000E+00  4.7895918936065E-03  1.6756147287527E+00
109  1.0800000000000E+00 -2.0932767342590E-02  1.6726183678180E+00
110  1.0900000000000E+00 -4.5202033929731E-02  1.6657522230205E+00
111  1.1000000000000E+00 -6.8013710808106E-02  1.6550757286750E+00
112  1.1100000000000E+00 -8.9366527907880E-02  1.6406602361029E+00
113  1.1200000000000E+00 -1.0926189021261E-01  1.6225876164057E+00
114  1.1300000000000E+00 -1.2770337495834E-01  1.6009490461066E+00
115  1.1400000000000E+00 -1.4469629310768E-01  1.5758440279167E+00
116  1.1500000000000E+00 -1.6024732929065E-01  1.5473796938465E+00
117  1.1600000000000E+00 -1.7436427312133E-01  1.5156704312466E+00
118  1.1700000000000E+00 -1.8705585314824E-01  1.4808378639738E+00
119  1.1800000000000E+00 -1.9833168268937E-01  1.4430112107937E+00
120  1.1900000000000E+00 -2.0820232440301E-01  1.4023280311641E+00
121  1.2000000000000E+00 -2.1667947765948E-01  1.3589353547325E+00
122  1.2100000000000E+00 -2.2377628958877E-01  1.3129911751407E+00
123  1.2200000000000E+00 -2.2950778705027E-01  1.2646662708897E+00
124  1.2300000000000E+00 -2.3389142273911E-01  1.2141462962668E+00
125  1.2400000000000E+00 -2.3694772411253E-01  1.1616340632044E+00
126  1.2500000000000E+00 -2.3870102884758E-01  1.1073519107215E+00
127  1.2600000000000E+00 -2.3918028506382E-01  1.0515440319928E+00
128  1.2700000000000E+00 -2.3841988851313E-01  9.9447859987187E-01
129  1.2800000000000E+00 -2.3646052239117E-01  9.3644950006018E-01
130  1.2900000000000E+00 -2.3334995826660E-01  8.7777744662073E-01
131  1.3000000000000E+00 -2.2914376881956E-01  8.1881021703000E-01
132  1.3100000000000E+00 -2.2390589463257E-01  7.5992170347143E-01
133  1.3200000000000E+00 -2.1770899811348E-01  7.0150943327753E-01
134  1.3300000000000E+00 -2.1063452764126E-01  6.4399016381565E-01