Ho    ONCVPSP-4.0.1  r_core=   2.00759   1.60898   1.90236   1.40216
67.0000     21.0000      250626    zatom,zion,pspd
8      11   3     4   600     0    pspcod,pspxc,lmax,lloc,mmax,r2well
5.99000000 14.00000000  0.00000000    rchrg fchrg qchrg
2     2     2     2     0    nproj
1     1           extension_switch
0                         9.6871598330119E+00  4.8851242061029E-01
1  0.0000000000000E+00  5.6450455421242E-11 -1.8021659164980E-10
2  1.0000000000000E-02  4.7598630943614E-02 -7.3775240602761E-03
3  2.0000000000000E-02  9.5159930287578E-02 -1.4782855302008E-02
4  3.0000000000000E-02  1.4264642947780E-01 -2.2243241213237E-02
5  4.0000000000000E-02  1.9002038782497E-01 -2.9784815346061E-02
6  5.0000000000000E-02  2.3724366085687E-01 -3.7432053929991E-02
7  6.0000000000000E-02  2.8427757393431E-01 -4.5207248654744E-02
8  7.0000000000000E-02  3.3108280281901E-01 -5.3130000799752E-02
9  8.0000000000000E-02  3.7761926282467E-01 -6.1216741707455E-02
10  9.0000000000000E-02  4.2384600811328E-01 -6.9480284374737E-02
11  1.0000000000000E-01  4.6972114261568E-01 -7.7929410673446E-02
12  1.1000000000000E-01  5.1520174396012E-01 -8.6568498408195E-02
13  1.2000000000000E-01  5.6024380168654E-01 -9.5397192080861E-02
14  1.3000000000000E-01  6.0480217090587E-01 -1.0441012085772E-01
15  1.4000000000000E-01  6.4883054243655E-01 -1.1359666683074E-01
16  1.5000000000000E-01  6.9228143031316E-01 -1.2294078623188E-01
17  1.6000000000000E-01  7.3510617741710E-01 -1.3242088580143E-01
18  1.7000000000000E-01  7.7725497982674E-01 -1.4200975603234E-01
19  1.8000000000000E-01  8.1867693032596E-01 -1.5167456251544E-01
20  1.9000000000000E-01  8.5932008134657E-01 -1.6137689609987E-01
21  2.0000000000000E-01  8.9913152745257E-01 -1.7107288206168E-01
22  2.1000000000000E-01  9.3805750730440E-01 -1.8071334794764E-01
23  2.2000000000000E-01  9.7604352486983E-01 -1.9024404923199E-01
24  2.3000000000000E-01  1.0130344894767E+00 -1.9960595139877E-01
25  2.4000000000000E-01  1.0489748741323E+00 -2.0873556654320E-01
26  2.5000000000000E-01  1.0838088913666E+00 -2.1756534207685E-01
27  2.6000000000000E-01  1.1174806856916E+00 -2.2602409862993E-01
28  2.7000000000000E-01  1.1499345416103E+00 -2.3403751376965E-01
29  2.8000000000000E-01  1.1811151059558E+00 -2.4152864770447E-01
30  2.9000000000000E-01  1.2109676231952E+00 -2.4841850672166E-01
31  3.0000000000000E-01  1.2394381821944E+00 -2.5462663971483E-01
32  3.1000000000000E-01  1.2664739728165E+00 -2.6007176280186E-01
33  3.2000000000000E-01  1.2920235506042E+00 -2.6467240671638E-01
34  3.3000000000000E-01  1.3160371076966E+00 -2.6834758137971E-01
35  3.4000000000000E-01  1.3384667480366E+00 -2.7101745182838E-01
36  3.5000000000000E-01  1.3592667648461E+00 -2.7260401948876E-01
37  3.6000000000000E-01  1.3783939182843E+00 -2.7303180265418E-01
38  3.7000000000000E-01  1.3958077111525E+00 -2.7222850993772E-01
39  3.8000000000000E-01  1.4114706604795E+00 -2.7012570044248E-01
40  3.9000000000000E-01  1.4253485628005E+00 -2.6665942441605E-01
41  4.0000000000000E-01  1.4374107509463E+00 -2.6177083823443E-01
42  4.1000000000000E-01  1.4476303401732E+00 -2.5540678769706E-01
43  4.2000000000000E-01  1.4559844614998E+00 -2.4752035380385E-01
44  4.3000000000000E-01  1.4624544801681E+00 -2.3807135543329E-01
45  4.4000000000000E-01  1.4670261972125E+00 -2.2702680364049E-01
46  4.5000000000000E-01  1.4696900322089E+00 -2.1436130264914E-01
47  4.6000000000000E-01  1.4704411853759E+00 -2.0005739301701E-01
48  4.7000000000000E-01  1.4692797773184E+00 -1.8410583291059E-01
49  4.8000000000000E-01  1.4662109648402E+00 -1.6650581392644E-01
50  4.9000000000000E-01  1.4612450313985E+00 -1.4726510844334E-01
51  5.0000000000000E-01  1.4543974509383E+00 -1.2640014607605E-01
52  5.1000000000000E-01  1.4456889240215E+00 -1.0393601742369E-01
53  5.2000000000000E-01  1.4351453853546E+00 -7.9906403961813E-02
54  5.3000000000000E-01  1.4227979820171E+00 -5.4353433608632E-02
55  5.4000000000000E-01  1.4086830219070E+00 -2.7327462200799E-02
56  5.5000000000000E-01  1.3928418921340E+00  1.1132181643507E-03
57  5.6000000000000E-01  1.3753209473198E+00  3.0902742231256E-02
58  5.7000000000000E-01  1.3561713679952E+00  6.1968103706758E-02
59  5.8000000000000E-01  1.3354489895182E+00  9.4229653236925E-02
60  5.9000000000000E-01  1.3132141021756E+00  1.2760165834978E-01
61  6.0000000000000E-01  1.2895312233670E+00  1.6199292076053E-01
62  6.1000000000000E-01  1.2644688430082E+00  1.9730744574431E-01
63  6.2000000000000E-01  1.2380991435202E+00  2.3344515761835E-01
64  6.3000000000000E-01  1.2104976960020E+00  2.7030265474759E-01
65  6.4000000000000E-01  1.1817431344004E+00  3.0777399690388E-01
66  6.5000000000000E-01  1.1519168097055E+00  3.4575151727228E-01
67  6.6000000000000E-01  1.1211024263967E+00  3.8412665092138E-01
68  6.7000000000000E-01  1.0893856635523E+00  4.2279077113738E-01
69  6.8000000000000E-01  1.0568537832072E+00  4.6163602467802E-01
70  6.9000000000000E-01  1.0235952286956E+00  5.0055615673279E-01
71  7.0000000000000E-01  9.8969921585505E-01  5.3944731618901E-01
72  7.1000000000000E-01  9.5525532007874E-01  5.7820883170516E-01
73  7.2000000000000E-01  9.2035306229997E-01  6.1674394908612E-01
74  7.3000000000000E-01  8.8508149705926E-01  6.5496052054763E-01
75  7.4000000000000E-01  8.4952880584997E-01  6.9277163665075E-01
76  7.5000000000000E-01  8.1378189895549E-01  7.3009619198611E-01
77  7.6000000000000E-01  7.7792602898122E-01  7.6685937609527E-01
78  7.7000000000000E-01  7.4204441924577E-01  8.0299308163396E-01
79  7.8000000000000E-01  7.0621791012808E-01  8.3843622241185E-01
80  7.9000000000000E-01  6.7052462636894E-01  8.7313495468425E-01
81  8.0000000000000E-01  6.3503966819680E-01  9.0704279592544E-01
82  8.1000000000000E-01  5.9983482898898E-01  9.4012063627609E-01
83  8.2000000000000E-01  5.6497834198920E-01  9.7233663892967E-01
84  8.3000000000000E-01  5.3053465838253E-01  1.0036660268989E+00
85  8.4000000000000E-01  4.9656425877882E-01  1.0340907548802E+00
86  8.5000000000000E-01  4.6312349987680E-01  1.0635990663041E+00
87  8.6000000000000E-01  4.3026449777416E-01  1.0921849371200E+00
88  8.7000000000000E-01  3.9803504905526E-01  1.1198474093989E+00
89  8.8000000000000E-01  3.6647859043013E-01  1.1465898194482E+00
90  8.9000000000000E-01  3.3563419731639E-01  1.1724189267997E+00
91  9.0000000000000E-01  3.0553662135413E-01  1.1973439521431E+00
92  9.1000000000000E-01  2.7621636642291E-01  1.2213755340294E+00
93  9.2000000000000E-01  2.4769980229474E-01  1.2445246159321E+00
94  9.3000000000000E-01  2.2000931460894E-01  1.2668012770220E+00
95  9.4000000000000E-01  1.9316348939826E-01  1.2882135217649E+00
96  9.5000000000000E-01  1.6717732993522E-01  1.3087660451631E+00
97  9.6000000000000E-01  1.4206250320506E-01  1.3284589921257E+00
98  9.7000000000000E-01  1.1782761285540E-01  1.3472867310208E+00
99  9.8000000000000E-01  9.4478495023221E-02  1.3652366629422E+00
100  9.9000000000000E-01  7.2018533005833E-02  1.3822880895557E+00
101  1.0000000000000E+00  5.0448986327940E-02  1.3984111635673E+00
102  1.0100000000000E+00  2.9769329367697E-02  1.4135659468437E+00
103  1.0200000000000E+00  9.9775943482067E-03  1.4277016019671E+00
104  1.0300000000000E+00 -8.9292868177818E-03  1.4407557435116E+00
105  1.0400000000000E+00 -2.6955147614302E-02  1.4526539755243E+00
106  1.0500000000000E+00 -4.4104264943664E-02  1.4633096415589E+00
107  1.0600000000000E+00 -6.0381056245125E-02  1.4726238130921E+00
108  1.0700000000000E+00 -7.5789801962284E-02  1.4804855412128E+00
109  1.0800000000000E+00 -9.0334399621887E-02  1.4867723950566E+00
110  1.0900000000000E+00 -1.0401815571141E-01  1.4913513085259E+00
111  1.1000000000000E+00 -1.1684362137106E-01  1.4940797543205E+00
112  1.1100000000000E+00 -1.2881247763720E-01  1.4948072611535E+00
113  1.1200000000000E+00 -1.3992547558018E-01  1.4933772861963E+00
114  1.1300000000000E+00 -1.5018243615537E-01  1.4896294501845E+00
115  1.1400000000000E+00 -1.5958231392650E-01  1.4834021372138E+00
116  1.1500000000000E+00 -1.6812332800420E-01  1.4745354549088E+00
117  1.1600000000000E+00 -1.7580316256931E-01  1.4628745433857E+00
118  1.1700000000000E+00 -1.8261923819157E-01  1.4482732130508E+00
119  1.1800000000000E+00 -1.8856905381366E-01  1.4305978818236E+00
120  1.1900000000000E+00 -1.9365059771474E-01  1.4097317716315E+00
121  1.2000000000000E+00 -1.9786282399707E-01  1.3855793119963E+00
122  1.2100000000000E+00 -2.0120618913093E-01  1.3580706850804E+00
123  1.2200000000000E+00 -2.0368324082013E-01  1.3271664315061E+00
124  1.2300000000000E+00 -2.0529924892611E-01  1.2928620197036E+00
125  1.2400000000000E+00 -2.0606286534490E-01  1.2551922630287E+00
126  1.2500000000000E+00 -2.0598679659754E-01  1.2142354486321E+00
127  1.2600000000000E+00 -2.0508846942504E-01  1.1701170197440E+00
128  1.2700000000000E+00 -2.0339066583579E-01  1.1230126284335E+00
129  1.2800000000000E+00 -2.0092209985784E-01  1.0731503491435E+00
130  1.2900000000000E+00 -1.9771790363626E-01  1.0208118139738E+00
131  1.3000000000000E+00 -1.9381998546340E-01  9.6633199864181E-01
132  1.3100000000000E+00 -1.8927721683766E-01  9.1009735329474E-01
133  1.3200000000000E+00 -1.8414539967185E-01  8.5254193459987E-01
134  1.3300000000000E+00 -1.7848695824508E-01  7.9414115436387E-01
135  1.3400000000000E+00 -1.7237029344857E-01  7.3540271554756E-01
136  1.3500000000000E+00 -1.6586872924966E-01  6.7685425853523E-01
137  1.3600000000000E+00 -1.5905897302101E-01  6.1902718844868E-01
138  1.3700000000000E+00 -1.5201900246831E-01  5.6243609826131E-01
139  1.3800000000000E+00 -1.4482528140277E-01  5.0755313308362E-01
140  1.3900000000000E+00 -1.3754919574632E-01  4.5477657329380E-01
141  1.4000000000000E+00 -1.3025264742386E-01  4.0439341694926E-01
142  1.4100000000000E+00 -1.2298273238095E-01  3.5653574140636E-01
143  1.4200000000000E+00 -1.1577356525052E-01  3.1121293928833E-01
144  1.4300000000000E+00 -1.0865492618086E-01  2.6840811187639E-01
145  1.4400000000000E+00 -1.0165415719760E-01  2.2809834228088E-01
146  1.4500000000000E+00 -9.4796144767760E-02  1.9025446352663E-01
147  1.4600000000000E+00 -8.8103368257910E-02  1.5484144997062E-01
148  1.4700000000000E+00 -8.1595947808788E-02  1.2181873620837E-01
149  1.4800000000000E+00 -7.5291699303987E-02  9.1140548433665E-02
150  1.4900000000000E+00 -6.9206195504592E-02  6.2756242030704E-02
151  1.5000000000000E+00 -6.3352832847830E-02  3.6610643776086E-02
152  1.5100000000000E+00 -5.7742903371911E-02  1.2644396754594E-02
153  1.5200000000000E+00 -5.2385671296243E-02 -9.2056932426368E-03
154  1.5300000000000E+00 -4.7288453734729E-02 -2.9006311521781E-02
155  1.5400000000000E+00 -4.2456705058289E-02 -4.6827289809486E-02
156  1.5500000000000E+00 -3.7894104438698E-02 -6.2741264275709E-02
157  1.5600000000000E+00 -3.3602646098271E-02 -7.6823337522504E-02
158  1.5700000000000E+00 -2.9582731822166E-02 -8.9150745544216E-02
159  1.5800000000000E+00 -2.5833265271344E-02 -9.9802530860271E-02
160  1.5900000000000E+00 -2.2351747767993E-02 -1.0885922193433E-01
161  1.6000000000000E+00 -1.9134374986128E-02 -1.1640252106739E-01
162  1.6100000000000E+00 -1.6176134355344E-02 -1.2251499984396E-01
163  1.6200000000000E+00 -1.3470902674744E-02 -1.2727980390464E-01
164  1.6300000000000E+00 -1.1011543665436E-02 -1.3078036694592E-01
165  1.6400000000000E+00 -8.7900050994914E-03 -1.3310013468520E-01
166  1.6500000000000E+00 -6.7974152300623E-03 -1.3432229889663E-01
167  1.6600000000000E+00 -5.0241782191557E-03 -1.3452954194190E-01
168  1.6700000000000E+00 -3.4600682990183E-03 -1.3380379198568E-01
169  1.6800000000000E+00 -2.0943224336087E-03 -1.3222598893353E-01
170  1.6900000000000E+00 -9.1573124224884E-04 -1.2987586125673E-01
171  1.7000000000000E+00  8.7272025209445E-05 -1.2683171374299E-01
172  1.7100000000000E+00  9.2652463743689E-04 -1.2317022603046E-01
173  1.7200000000000E+00  1.6140498457126E-03 -1.1896626199345E-01
174  1.7300000000000E+00  2.1619748028399E-03 -1.1429268974096E-01
175  1.7400000000000E+00  2.5824510954100E-03 -1.0922021222442E-01
176  1.7500000000000E+00  2.8875779960367E-03 -1.0381720814013E-01
177  1.7600000000000E+00  3.0893285535934E-03 -9.8149582986957E-02
178  1.7700000000000E+00  3.1994786293801E-03 -9.2280630144526E-02
179  1.7800000000000E+00  3.2295389424983E-03 -8.6270901582108E-02
180  1.7900000000000E+00  3.1906902067954E-03 -8.0178088032104E-02
181  1.8000000000000E+00  3.0937214296182E-03 -7.4056908444412E-02
182  1.8100000000000E+00  2.9489713934123E-03 -6.7959008247005E-02
183  1.8200000000000E+00  2.7662734597473E-03 -6.1932866872456E-02
184  1.8300000000000E+00  2.5549032393683E-03 -5.6023710745817E-02
185  1.8400000000000E+00  2.3235307325624E-03 -5.0273442943239E-02
186  1.8500000000000E+00  2.0801741166779E-03 -4.4720568674663E-02
187  1.8600000000000E+00  1.8321575346500E-03 -3.9400133340430E-02
188  1.8700000000000E+00  1.5860742367473E-03 -3.4343681418818E-02
189  1.8800000000000E+00  1.3477458430515E-03 -2.9579178778742E-02
190  1.8900000000000E+00  1.1221978311312E-03 -2.5131016573144E-02
191  1.9000000000000E+00  9.1363982709532E-04 -2.1020027105800E-02
192  1.9100000000000E+00  7.2510229331796E-04 -1.7261581250548E-02
193  1.9200000000000E+00  5.5669369283092E-04 -1.3855774894904E-02
194  1.9300000000000E+00  4.0961593908338E-04 -1.0810048343809E-02
195  1.9400000000000E+00  2.8601309417482E-04 -8.1386076813136E-03
196  1.9500000000000E+00  1.8658441950216E-04 -5.8491976460775E-03
197  1.9600000000000E+00  1.1097074940921E-04 -3.9452605927204E-03
198  1.9700000000000E+00  5.7698895694808E-05 -2.4256472218212E-03
199  1.9800000000000E+00  2.4182872403371E-05 -1.2851006275352E-03
200  1.9900000000000E+00  6.7575595554238E-06 -5.0892605521608E-04
201  2.0000000000000E+00  6.6665162968757E-07 -1.0167286952497E-04
202  2.0100000000000E+00 -1.8214962869400E-08  9.0259734124863E-06
203  2.0200000000000E+00  2.1229238458664E-09 -4.3426534656353E-07
204  2.03  0. -0.
205  2.04 -0.  0.
206  2.05 -0. -0.
207  2.06  0.  0.
208  2.07  0.  0.
209  2.08  0.  0.
210  2.09  0.  0.
211  2.10  0.  0.
212  2.11  0.  0.
213  2.12  0.  0.
214  2.13  0.  0.
215  2.14  0.  0.
216  2.15  0.  0.
217  2.16  0.  0.
218  2.17  0.  0.
219  2.18  0.  0.
220  2.19  0.  0.
221  2.20  0.  0.
222  2.21  0.  0.
223  2.22  0.  0.
224  2.23  0.  0.
225  2.24  0.  0.
226  2.25  0.  0.
227  2.26  0.  0.
228  2.27  0.  0.
229  2.28  0.  0.
230  2.29  0.  0.
231  2.30  0.  0.
232  2.31  0.  0.
233  2.32  0.  0.
234  2.33  0.  0.
235  2.34  0.  0.
236  2.35  0.  0.
237  2.36  0.  0.
238  2.37  0.  0.
239  2.38  0.  0.
240  2.39  0.  0.
241  2.40  0.  0.
242  2.41  0.  0.
243  2.42  0.  0.
244  2.43  0.  0.
245  2.44  0.  0.
246  2.45  0.  0.
247  2.46  0.  0.
248  2.47  0.  0.
249  2.48  0.  0.
250  2.49  0.  0.
251  2.50  0.  0.
252  2.51  0.  0.
253  2.52  0.  0.
254  2.53  0.  0.
255  2.54  0.  0.
256  2.55  0.  0.
257  2.56  0.  0.
258  2.57  0.  0.
259  2.58  0.  0.
260  2.59  0.  0.
261  2.60  0.  0.
262  2.61  0.  0.
263  2.62  0.  0.
264  2.63  0.  0.
265  2.64  0.  0.
266  2.65  0.  0.
267  2.66  0.  0.
268  2.67  0.  0.
269  2.68  0.  0.
270  2.69  0.  0.
271  2.70  0.  0.
272  2.71  0.  0.
273  2.72  0.  0.
274  2.73  0.  0.
275  2.74  0.  0.
276  2.75  0.  0.
277  2.76  0.  0.
278  2.77  0.  0.
279  2.78  0.  0.
280  2.79  0.  0.
281  2.80  0.  0.
282  2.81  0.  0.
283  2.82  0.  0.
284  2.83  0.  0.
285  2.84  0.  0.
286  2.85  0.  0.
287  2.86  0.  0.
288  2.87  0.  0.
289  2.88  0.  0.
290  2.89  0.  0.
291  2.90  0.  0.
292  2.91  0.  0.
293  2.92  0.  0.
294  2.93  0.  0.
295  2.94  0.  0.
296  2.95  0.  0.
297  2.96  0.  0.
298  2.97  0.  0.
299  2.98  0.  0.
300  2.99  0.  0.
301  3.00  0.  0.
302  3.01  0.  0.
303  3.02  0.  0.
304  3.03  0.  0.
305  3.04  0.  0.
306  3.05  0.  0.
307  3.06  0.  0.
308  3.07  0.  0.
309  3.08  0.  0.
310  3.09  0.  0.
311  3.10  0.  0.
312  3.11  0.  0.
313  3.12  0.  0.
314  3.13  0.  0.
315  3.14  0.  0.
316  3.15  0.  0.
317  3.16  0.  0.
318  3.17  0.  0.
319  3.18  0.  0.
320  3.19  0.  0.
321  3.20  0.  0.
322  3.21  0.  0.
323  3.22  0.  0.
324  3.23  0.  0.
325  3.24  0.  0.
326  3.25  0.  0.
327  3.26  0.  0.
328  3.27  0.  0.
329  3.28  0.  0.
330  3.29  0.  0.
331  3.30  0.  0.
332  3.31  0.  0.
333  3.32  0.  0.
334  3.33  0.  0.
335  3.34  0.  0.
336  3.35  0.  0.
337  3.36  0.  0.
338  3.37  0.  0.
339  3.38  0.  0.
340  3.39  0.  0.
341  3.40  0.  0.
342  3.41  0.  0.
343  3.42  0.  0.
344  3.43  0.  0.
345  3.44  0.  0.
346  3.45  0.  0.
347  3.46  0.  0.
348  3.47  0.  0.
349  3.48  0.  0.
350  3.49  0.  0.
351  3.50  0.  0.
352  3.51  0.  0.
353  3.52  0.  0.
354  3.53  0.  0.
355  3.54  0.  0.
356  3.55  0.  0.
357  3.56  0.  0.
358  3.57  0.  0.
359  3.58  0.  0.
360  3.59  0.  0.
361  3.60  0.  0.
362  3.61  0.  0.
363  3.62  0.  0.
364  3.63  0.  0.
365  3.64  0.  0.
366  3.65  0.  0.
367  3.66  0.  0.
368  3.67  0.  0.
369  3.68  0.  0.
370  3.69  0.  0.
371  3.70  0.  0.
372  3.71  0.  0.
373  3.72  0.  0.
374  3.73  0.  0.
375  3.74  0.  0.
376  3.75  0.  0.
377  3.76  0.  0.
378  3.77  0.  0.
379  3.78  0.  0.
380  3.79  0.  0.
381  3.80  0.  0.
382  3.81  0.  0.
383  3.82  0.  0.
384  3.83  0.  0.
385  3.84  0.  0.
386  3.85  0.  0.
387  3.86  0.  0.
388  3.87  0.  0.
389  3.88  0.  0.
390  3.89  0.  0.
391  3.90  0.  0.
392  3.91  0.  0.
393  3.92  0.  0.
394  3.93  0.  0.
395  3.94  0.  0.
396  3.95  0.  0.
397  3.96  0.  0.
398  3.97  0.  0.
399  3.98  0.  0.
400  3.99  0.  0.
401  4.00  0.  0.
402  4.01  0.  0.
403  4.02  0.  0.
404  4.03  0.  0.
405  4.04  0.  0.
406  4.05  0.  0.
407  4.06  0.  0.
408  4.07  0.  0.
409  4.08  0.  0.
410  4.09  0.  0.
411  4.10  0.  0.
412  4.11  0.  0.
413  4.12  0.  0.
414  4.13  0.  0.
415  4.14  0.  0.
416  4.15  0.  0.
417  4.16  0.  0.
418  4.17  0.  0.
419  4.18  0.  0.
420  4.19  0.  0.
421  4.20  0.  0.
422  4.21  0.  0.
423  4.22  0.  0.
424  4.23  0.  0.
425  4.24  0.  0.
426  4.25  0.  0.
427  4.26  0.  0.
428  4.27  0.  0.
429  4.28  0.  0.
430  4.29  0.  0.
431  4.30  0.  0.
432  4.31  0.  0.
433  4.32  0.  0.
434  4.33  0.  0.
435  4.34  0.  0.
436  4.35  0.  0.
437  4.36  0.  0.
438  4.37  0.  0.
439  4.38  0.  0.
440  4.39  0.  0.
441  4.40  0.  0.
442  4.41  0.  0.
443  4.42  0.  0.
444  4.43  0.  0.
445  4.44  0.  0.
446  4.45  0.  0.
447  4.46  0.  0.
448  4.47  0.  0.
449  4.48  0.  0.
450  4.49  0.  0.
451  4.50  0.  0.
452  4.51  0.  0.
453  4.52  0.  0.
454  4.53  0.  0.
455  4.54  0.  0.
456  4.55  0.  0.
457  4.56  0.  0.
458  4.57  0.  0.
459  4.58  0.  0.
460  4.59  0.  0.
461  4.60  0.  0.
462  4.61  0.  0.
463  4.62  0.  0.
464  4.63  0.  0.
465  4.64  0.  0.
466  4.65  0.  0.
467  4.66  0.  0.
468  4.67  0.  0.
469  4.68  0.  0.
470  4.69  0.  0.
471  4.70  0.  0.
472  4.71  0.  0.
473  4.72  0.  0.
474  4.73  0.  0.
475  4.74  0.  0.
476  4.75  0.  0.
477  4.76  0.  0.
478  4.77  0.  0.
479  4.78  0.  0.
480  4.79  0.  0.
481  4.80  0.  0.
482  4.81  0.  0.
483  4.82  0.  0.
484  4.83  0.  0.
485  4.84  0.  0.
486  4.85  0.  0.
487  4.86  0.  0.
488  4.87  0.  0.
489  4.88  0.  0.
490  4.89  0.  0.
491  4.90  0.  0.
492  4.91  0.  0.
493  4.92  0.  0.
494  4.93  0.  0.
495  4.94  0.  0.
496  4.95  0.  0.
497  4.96  0.  0.
498  4.97  0.  0.
499  4.98  0.  0.
500  4.99  0.  0.
501  5.00  0.  0.
502  5.01  0.  0.
503  5.02  0.  0.
504  5.03  0.  0.
505  5.04  0.  0.
506  5.05  0.  0.
507  5.06  0.  0.
508  5.07  0.  0.
509  5.08  0.  0.
510  5.09  0.  0.
511  5.10  0.  0.
512  5.11  0.  0.
513  5.12  0.  0.
514  5.13  0.  0.
515  5.14  0.  0.
516  5.15  0.  0.
517  5.16  0.  0.
518  5.17  0.  0.
519  5.18  0.  0.
520  5.19  0.  0.
521  5.20  0.  0.
522  5.21  0.  0.
523  5.22  0.  0.
524  5.23  0.  0.
525  5.24  0.  0.
526  5.25  0.  0.
527  5.26  0.  0.
528  5.27  0.  0.
529  5.28  0.  0.
530  5.29  0.  0.
531  5.30  0.  0.
532  5.31  0.  0.
533  5.32  0.  0.
534  5.33  0.  0.
535  5.34  0.  0.
536  5.35  0.  0.
537  5.36  0.  0.
538  5.37  0.  0.
539  5.38  0.  0.
540  5.39  0.  0.
541  5.40  0.  0.
542  5.41  0.  0.
543  5.42  0.  0.
544  5.43  0.  0.
545  5.44  0.  0.
546  5.45  0.  0.
547  5.46  0.  0.
548  5.47  0.  0.
549  5.48  0.  0.
550  5.49  0.  0.
551  5.50  0.  0.
552  5.51  0.  0.
553  5.52  0.  0.
554  5.53  0.  0.
555  5.54  0.  0.
556  5.55  0.  0.
557  5.56  0.  0.
558  5.57  0.  0.
559  5.58  0.  0.
560  5.59  0.  0.
561  5.60  0.  0.
562  5.61  0.  0.
563  5.62  0.  0.
564  5.63  0.  0.
565  5.64  0.  0.
566  5.65  0.  0.
567  5.66  0.  0.
568  5.67  0.  0.
569  5.68  0.  0.
570  5.69  0.  0.
571  5.70  0.  0.
572  5.71  0.  0.
573  5.72  0.  0.
574  5.73  0.  0.
575  5.74  0.  0.
576  5.75  0.  0.
577  5.76  0.  0.
578  5.77  0.  0.
579  5.78  0.  0.
580  5.79  0.  0.
581  5.80  0.  0.
582  5.81  0.  0.
583  5.82  0.  0.
584  5.83  0.  0.
585  5.84  0.  0.
586  5.85  0.  0.
587  5.86  0.  0.
588  5.87  0.  0.
589  5.88  0.  0.
590  5.89  0.  0.
591  5.90  0.  0.
592  5.91  0.  0.
593  5.92  0.  0.
594  5.93  0.  0.
595  5.94  0.  0.
596  5.95  0.  0.
597  5.96  0.  0.
598  5.97  0.  0.
599  5.98  0.  0.
600  5.99  0.  0.
1                         7.1910569906599E+00  2.6403384211654E-01
1  0.0000000000000E+00 -2.1680142403557E-10  2.2143866393320E-09
2  1.0000000000000E-02  1.1416631676419E-03  8.0141879701543E-04
3  2.0000000000000E-02  4.5637342298840E-03  3.1967027837407E-03
4  3.0000000000000E-02  1.0257457980788E-02  7.1590345627198E-03
5  4.0000000000000E-02  1.8208242923017E-02  1.2644049942704E-02
6  5.0000000000000E-02  2.8395662473807E-02  1.9590330798116E-02
7  6.0000000000000E-02  4.0793457519734E-02  2.7920086441773E-02
8  7.0000000000000E-02  5.5369541168621E-02  3.7540015028440E-02
9  8.0000000000000E-02  7.2086006763677E-02  4.8342334292431E-02
10  9.0000000000000E-02  9.0899140423159E-02  6.0205968860559E-02
11  1.0000000000000E-01  1.1175943954484E-01  7.2997879500675E-02
12  1.1000000000000E-01  1.3461163886516E-01  8.6574517992486E-02
13  1.2000000000000E-01  1.5939474578531E-01  1.0078338986416E-01
14  1.3000000000000E-01  1.8604208676832E-01  1.1546470604358E-01
15  1.4000000000000E-01  2.1448136667056E-01  1.3045310354430E-01
16  1.5000000000000E-01  2.4463474289616E-01  1.4557941465241E-01
17  1.6000000000000E-01  2.7641891625383E-01  1.6067246370992E-01
18  1.7000000000000E-01  3.0974524035034E-01  1.7556087050557E-01
19  1.8000000000000E-01  3.4451985127564E-01  1.9007483948276E-01
20  1.9000000000000E-01  3.8064381922015E-01  2.0404791445087E-01
21  2.0000000000000E-01  4.1801332351782E-01  2.1731867923029E-01
22  2.1000000000000E-01  4.5651985242973E-01  2.2973238565985E-01
23  2.2000000000000E-01  4.9605042877515E-01  2.4114249162713E-01
24  2.3000000000000E-01  5.3648786228268E-01  2.5141209323036E-01
25  2.4000000000000E-01  5.7771102927563E-01  2.6041523681635E-01
26  2.5000000000000E-01  6.1959518002799E-01  2.6803809843878E-01
27  2.6000000000000E-01  6.6201227383197E-01  2.7418002021345E-01
28  2.7000000000000E-01  7.0483134151113E-01  2.7875439508274E-01
29  2.8000000000000E-01  7.4791887479652E-01  2.8168939360698E-01
30  2.9000000000000E-01  7.9113924166324E-01  2.8292852854499E-01
31  3.0000000000000E-01  8.3435512640425E-01  2.8243105513456E-01
32  3.1000000000000E-01  8.7742799290161E-01  2.8017220710698E-01
33  3.2000000000000E-01  9.2021856924801E-01  2.7614327053352E-01
34  3.3000000000000E-01  9.6258735157520E-01  2.7035149957892E-01
35  3.4000000000000E-01  1.0043951246673E+00  2.6281988009877E-01
36  3.5000000000000E-01  1.0455034966771E+00  2.5358674873756E-01
37  3.6000000000000E-01  1.0857754450283E+00  2.4270527674274E-01
38  3.7000000000000E-01  1.1250758703759E+00  2.3024282908437E-01
39  3.8000000000000E-01  1.1632721553166E+00  2.1628021064707E-01
40  3.9000000000000E-01  1.2002347243917E+00  2.0091081222570E-01
41  4.0000000000000E-01  1.2358376018090E+00  1.8423966980286E-01
42  4.1000000000000E-01  1.2699589632250E+00  1.6638245110776E-01
43  4.2000000000000E-01  1.3024816778862E+00  1.4746438375243E-01
44  4.3000000000000E-01  1.3332938374133E+00  1.2761913931513E-01
45  4.4000000000000E-01  1.3622892675377E+00  1.0698768760022E-01
46  4.5000000000000E-01  1.3893680191611E+00  8.5717134955004E-02
47  4.6000000000000E-01  1.4144368352001E+00  6.3959559985091E-02
48  4.7000000000000E-01  1.4374095898078E+00  4.1870859293460E-02
49  4.8000000000000E-01  1.4582076967228E+00  1.9609614993108E-02
50  4.9000000000000E-01  1.4767604836831E+00 -2.6640052660918E-03
51  5.0000000000000E-01  1.4930055300610E+00 -2.4789306143395E-02
52  5.1000000000000E-01  1.5068889651143E+00 -4.6606071927897E-02
53  5.2000000000000E-01  1.5183657245136E+00 -6.7955516219895E-02
54  5.3000000000000E-01  1.5273997630876E+00 -8.8681168181987E-02
55  5.4000000000000E-01  1.5339642220284E+00 -1.0862969091171E-01
56  5.5000000000000E-01  1.5380415491119E+00 -1.2765162882053E-01
57  5.6000000000000E-01  1.5396235708112E+00 -1.4560208221026E-01
58  5.7000000000000E-01  1.5387115155128E+00 -1.6234130849182E-01
59  5.8000000000000E-01  1.5353159873820E+00 -1.7773525067518E-01
60  5.9000000000000E-01  1.5294568907606E+00 -1.9165599485694E-01
61  6.0000000000000E-01  1.5211633053174E+00 -2.0398215942817E-01
62  6.1000000000000E-01  1.5104733125084E+00 -2.1459921960653E-01
63  6.2000000000000E-01  1.4974337742277E+00 -2.2339977165814E-01
64  6.3000000000000E-01  1.4821000648566E+00 -2.3028374180640E-01
65  6.4000000000000E-01  1.4645357582249E+00 -2.3515854532636E-01
66  6.5000000000000E-01  1.4448122713020E+00 -2.3793920169305E-01
67  6.6000000000000E-01  1.4230084667224E+00 -2.3854841189472E-01
68  6.7000000000000E-01  1.3992102165219E+00 -2.3691660413938E-01
69  6.8000000000000E-01  1.3735099297232E+00 -2.3298195418773E-01
70  6.9000000000000E-01  1.3460060466482E+00 -2.2669038644133E-01
71  7.0000000000000E-01  1.3168025030618E+00 -2.1799556171982E-01
72  7.1000000000000E-01  1.2860081674604E+00 -2.0685885737916E-01
73  7.2000000000000E-01  1.2537362550066E+00 -1.9324934507796E-01
74  7.3000000000000E-01  1.2201037217830E+00 -1.7714377109396E-01
75  7.4000000000000E-01  1.1852306431899E+00 -1.5852654365057E-01
76  7.5000000000000E-01  1.1492395804403E+00 -1.3738973123930E-01
77  7.6000000000000E-01  1.1122549392193E+00 -1.1373307543741E-01
78  7.7000000000000E-01  1.0744023246616E+00 -8.7564021224887E-02
79  7.8000000000000E-01  1.0358078968673E+00 -5.8897767315006E-02
80  7.9000000000000E-01  9.9659773121894E-01 -2.7757338531747E-02
81  8.0000000000000E-01  9.5689718778481E-01  5.8263181978812E-03
82  8.1000000000000E-01  9.1683029408101E-01  4.1814213119527E-02
83  8.2000000000000E-01  8.7651914543692E-01  8.0159167511556E-02
84  8.3000000000000E-01  8.3608332714337E-01  1.2080564187085E-01
85  8.4000000000000E-01  7.9563936247300E-01  1.6368953858208E-01
86  8.5000000000000E-01  7.5530019053901E-01  2.0873797965305E-01
87  8.6000000000000E-01  7.1517467780345E-01  2.5586906053443E-01
88  8.7000000000000E-01  6.7536716685598E-01  3.0499158151108E-01
89  8.8000000000000E-01  6.3597706585860E-01  3.5600475866165E-01
90  8.9000000000000E-01  5.9709848178873E-01  4.0879791695463E-01
91  9.0000000000000E-01  5.5881990031192E-01  4.6325016869507E-01
92  9.1000000000000E-01  5.2122391477468E-01  5.1923008127709E-01
93  9.2000000000000E-01  4.8438700642783E-01  5.7659533904328E-01
94  9.3000000000000E-01  4.4837937756987E-01  6.3519240502298E-01
95  9.4000000000000E-01  4.1326483884012E-01  6.9485618942190E-01
96  9.5000000000000E-01  3.7910075139249E-01  7.5540973297801E-01
97  9.6000000000000E-01  3.4593802414425E-01  8.1666391468494E-01
98  9.7000000000000E-01  3.1382116572344E-01  8.7841719491034E-01
99  9.8000000000000E-01  2.8278839013527E-01  9.4045540659818E-01
100  9.9000000000000E-01  2.5287177453683E-01  1.0025516090249E+00
101  1.0000000000000E+00  2.2409746685480E-01  1.0644660204546E+00
102  1.0100000000000E+00  1.9648594030941E-01  1.1259460479801E+00
103  1.0200000000000E+00  1.7005229122500E-01  1.1867264348068E+00
104  1.0300000000000E+00  1.4480657582202E-01  1.2465295471752E+00
105  1.0400000000000E+00  1.2075418100609E-01  1.3050658249788E+00
106  1.0500000000000E+00  9.7896223506182E-02  1.3620344218357E+00
107  1.0600000000000E+00  7.6229971076984E-02  1.4171240618386E+00
108  1.0700000000000E+00  5.5749278884322E-02  1.4700141413374E+00
109  1.0800000000000E+00  3.6445033646493E-02  1.5203761048127E+00
110  1.0900000000000E+00  1.8305597627312E-02  1.5678751240372E+00
111  1.1000000000000E+00  1.3172441805507E-03  1.6121721091896E+00
112  1.1100000000000E+00 -1.4535423751570E-02  1.6529260792213E+00
113  1.1200000000000E+00 -2.9269080963962E-02  1.6897969164520E+00
114  1.1300000000000E+00 -4.2901321962612E-02  1.7224485268860E+00
115  1.1400000000000E+00 -5.5450346303888E-02  1.7505524229778E+00
116  1.1500000000000E+00 -6.6934695732687E-02  1.7737917392669E+00
117  1.1600000000000E+00 -7.7373051076996E-02  1.7918656833553E+00
118  1.1700000000000E+00 -8.6784096157465E-02  1.8044944147826E+00
119  1.1800000000000E+00 -9.5186455036841E-02  1.8114243323823E+00
120  1.1900000000000E+00 -1.0259870772869E-01  1.8124337363117E+00
121  1.2000000000000E+00 -1.0903948799352E-01  1.8073388140045E+00
122  1.2100000000000E+00 -1.1452766504426E-01  1.7959998795184E+00
123  1.2200000000000E+00 -1.1908260882292E-01  1.7783277727566E+00
124  1.2300000000000E+00 -1.2272453600135E-01  1.7542902988877E+00
125  1.2400000000000E+00 -1.2547493092069E-01  1.7239185581777E+00
126  1.2500000000000E+00 -1.2735703233895E-01  1.6873129826002E+00
127  1.2600000000000E+00 -1.2839637304529E-01  1.6446488574386E+00
128  1.2700000000000E+00 -1.2862135507405E-01  1.5961810631426E+00
129  1.2800000000000E+00 -1.2806383842587E-01  1.5422477251043E+00
130  1.2900000000000E+00 -1.2675971579879E-01  1.4832724059957E+00
131  1.3000000000000E+00 -1.2474943981172E-01  1.4197644165080E+00
132  1.3100000000000E+00 -1.2207846256119E-01  1.3523167557002E+00
133  1.3200000000000E+00 -1.1879754003475E-01  1.2816011211537E+00
134  1.3300000000000E+00 -1.1496284581520E-01  1.2083593508433E+00