Dy    ONCVPSP-4.0.1  r_core=   2.00176   1.60430   1.90822   1.50213
66.0000     20.0000      250626    zatom,zion,pspd
8      11   3     4   600     0    pspcod,pspxc,lmax,lloc,mmax,r2well
5.99000000 10.60000000  0.00000000    rchrg fchrg qchrg
2     2     2     2     0    nproj
1     1           extension_switch
0                         6.7909557951573E+00  7.5798083140129E-01
1  0.0000000000000E+00  8.6312845759551E-11 -2.7364833662946E-10
2  1.0000000000000E-02  4.2315981245889E-02 -2.9419611583323E-03
3  2.0000000000000E-02  8.4607775155323E-02 -5.9171755937675E-03
4  3.0000000000000E-02  1.2685101451998E-01 -8.9582917268091E-03
5  4.0000000000000E-02  1.6902097464462E-01 -1.2096755057558E-02
6  5.0000000000000E-02  2.1109240022376E-01 -1.5362223617367E-02
7  6.0000000000000E-02  2.5303933890058E-01 -1.8782003519072E-02
8  7.0000000000000E-02  2.9483498363382E-01 -2.2380510981262E-02
9  8.0000000000000E-02  3.3645152591126E-01 -2.6178766928347E-02
10  9.0000000000000E-02  3.7786002174282E-01 -3.0193929930993E-02
11  1.0000000000000E-01  4.1903027224008E-01 -3.4438872854266E-02
12  1.1000000000000E-01  4.5993072044609E-01 -3.8921808127209E-02
13  1.2000000000000E-01  5.0052836591916E-01 -4.3645966042206E-02
14  1.3000000000000E-01  5.4078869839901E-01 -4.8609329940042E-02
15  1.4000000000000E-01  5.8067565169512E-01 -5.3804431542854E-02
16  1.5000000000000E-01  6.2015157873679E-01 -5.9218209067557E-02
17  1.6000000000000E-01  6.5917724851398E-01 -6.4831930093277E-02
18  1.7000000000000E-01  6.9771186541990E-01 -7.0621180474531E-02
19  1.8000000000000E-01  7.3571311128224E-01 -7.6555919893647E-02
20  1.9000000000000E-01  7.7313721014232E-01 -8.2600603938625E-02
21  2.0000000000000E-01  8.0993901561169E-01 -8.8714371883207E-02
22  2.1000000000000E-01  8.4607212040744E-01 -9.4851298641513E-02
23  2.2000000000000E-01  8.8148898744088E-01 -1.0096070867744E-01
24  2.3000000000000E-01  9.1614110161373E-01 -1.0698754897596E-01
25  2.4000000000000E-01  9.4997914126131E-01 -1.1287281753697E-01
26  2.5000000000000E-01  9.8295316797800E-01 -1.1855404323829E-01
27  2.6000000000000E-01  1.0150128333658E+00 -1.2396581234024E-01
28  2.7000000000000E-01  1.0461076010663E+00 -1.2904033637519E-01
29  2.8000000000000E-01  1.0761869822715E+00 -1.3370805568783E-01
30  2.9000000000000E-01  1.1052007827567E+00 -1.3789827247086E-01
31  3.0000000000000E-01  1.1330993593509E+00 -1.4153980678048E-01
32  3.1000000000000E-01  1.1598338836456E+00 -1.4456166872162E-01
33  3.2000000000000E-01  1.1853566106520E+00 -1.4689373976728E-01
34  3.3000000000000E-01  1.2096211500467E+00 -1.4846745602198E-01
35  3.4000000000000E-01  1.2325827375993E+00 -1.4921648616013E-01
36  3.5000000000000E-01  1.2541985043479E+00 -1.4907739676492E-01
37  3.6000000000000E-01  1.2744277410910E+00 -1.4799029786633E-01
38  3.7000000000000E-01  1.2932321557826E+00 -1.4589946162382E-01
39  3.8000000000000E-01  1.3105761214645E+00 -1.4275390732393E-01
40  3.9000000000000E-01  1.3264269124387E+00 -1.3850794615972E-01
41  4.0000000000000E-01  1.3407549264712E+00 -1.3312167962856E-01
42  4.1000000000000E-01  1.3535338909351E+00 -1.2656144582206E-01
43  4.2000000000000E-01  1.3647410509296E+00 -1.1880020838417E-01
44  4.3000000000000E-01  1.3743573375697E+00 -1.0981788347595E-01
45  4.4000000000000E-01  1.3823675148081E+00 -9.9601600702623E-02
46  4.5000000000000E-01  1.3887603033420E+00 -8.8145894625360E-02
47  4.6000000000000E-01  1.3935284803594E+00 -7.5452824188822E-02
48  4.7000000000000E-01  1.3966689540951E+00 -6.1532018141374E-02
49  4.8000000000000E-01  1.3981828123941E+00 -4.6400645297645E-02
50  4.9000000000000E-01  1.3980753447161E+00 -3.0083309288091E-02
51  5.0000000000000E-01  1.3963560372565E+00 -1.2611868246538E-02
52  5.1000000000000E-01  1.3930385411068E+00  5.9748193013835E-03
53  5.2000000000000E-01  1.3881406136243E+00  2.5631220279124E-02
54  5.3000000000000E-01  1.3816840334308E+00  4.6305521764880E-02
55  5.4000000000000E-01  1.3736944897027E+00  6.7940090923530E-02
56  5.5000000000000E-01  1.3642014466543E+00  9.0471995782755E-02
57  5.6000000000000E-01  1.3532379843493E+00  1.1383358176402E-01
58  5.7000000000000E-01  1.3408406171930E+00  1.3795309821859E-01
59  5.8000000000000E-01  1.3270490916700E+00  1.6275536861037E-01
60  5.9000000000000E-01  1.3119061650822E+00  1.8816249743954E-01
61  6.0000000000000E-01  1.2954573672228E+00  2.1409460651953E-01
62  6.1000000000000E-01  1.2777507470776E+00  2.4047059281082E-01
63  6.2000000000000E-01  1.2588366067864E+00  2.6720889968383E-01
64  6.3000000000000E-01  1.2387672252129E+00  2.9422829323383E-01
65  6.4000000000000E-01  1.2175965735661E+00  3.2144863510729E-01
66  6.5000000000000E-01  1.1953800255886E+00  3.4879164322388E-01
67  6.6000000000000E-01  1.1721740648719E+00  3.7618163179346E-01
68  6.7000000000000E-01  1.1480359918803E+00  4.0354622213383E-01
69  6.8000000000000E-01  1.1230236332639E+00  4.3081701599249E-01
70  6.9000000000000E-01  1.0971950560072E+00  4.5793022336331E-01
71  7.0000000000000E-01  1.0706082889112E+00  4.8482723716504E-01
72  7.1000000000000E-01  1.0433210538260E+00  5.1145514760929E-01
73  7.2000000000000E-01  1.0153905089479E+00  5.3776718962899E-01
74  7.3000000000000E-01  9.8687300637461E-01  5.6372311735679E-01
75  7.4000000000000E-01  9.5782386596233E-01  5.8928950033387E-01
76  7.5000000000000E-01  9.2829716736627E-01  6.1443993688445E-01
77  7.6000000000000E-01  8.9834556196088E-01  6.3915518090455E-01
78  7.7000000000000E-01  8.6802010613754E-01  6.6342317917594E-01
79  7.8000000000000E-01  8.3737011726307E-01  6.8723901722087E-01
80  7.9000000000000E-01  8.0644305335700E-01  7.1060477265100E-01
81  8.0000000000000E-01  7.7528441730973E-01  7.3352927592443E-01
82  8.1000000000000E-01  7.4393768622071E-01  7.5602777940140E-01
83  8.2000000000000E-01  7.1244426618787E-01  7.7812153656911E-01
84  8.3000000000000E-01  6.8084347262878E-01  7.9983729428290E-01
85  8.4000000000000E-01  6.4917253596278E-01  8.2120670183278E-01
86  8.5000000000000E-01  6.1746663223480E-01  8.4226564158320E-01
87  8.6000000000000E-01  5.8575893801664E-01  8.6305348684034E-01
88  8.7000000000000E-01  5.5408070868355E-01  8.8361229346718E-01
89  8.8000000000000E-01  5.2246137893427E-01  9.0398593258234E-01
90  8.9000000000000E-01  4.9092868420348E-01  9.2421917244021E-01
91  9.0000000000000E-01  4.5950880140858E-01  9.4435671828533E-01
92  9.1000000000000E-01  4.2822650727922E-01  9.6444221960251E-01
93  9.2000000000000E-01  3.9710535233941E-01  9.8451725473639E-01
94  9.3000000000000E-01  3.6616784844976E-01  1.0046203033282E+00
95  9.4000000000000E-01  3.3543566767163E-01  1.0247857174080E+00
96  9.5000000000000E-01  3.0492985008720E-01  1.0450427022863E+00
97  9.6000000000000E-01  2.7467101809945E-01  1.0654143186072E+00
98  9.7000000000000E-01  2.4467959464432E-01  1.0859165170544E+00
99  9.8000000000000E-01  2.1497602267398E-01  1.1065572172435E+00
100  9.9000000000000E-01  1.8558098321495E-01  1.1273354422855E+00
101  1.0000000000000E+00  1.5651560926720E-01  1.1482405203747E+00
102  1.0100000000000E+00  1.2780169279044E-01  1.1692513645330E+00
103  1.0200000000000E+00  9.9461882020746E-02  1.1903358413420E+00
104  1.0300000000000E+00  7.1519866373684E-02  1.2114502391122E+00
105  1.0400000000000E+00  4.4000546218971E-02  1.2325388454774E+00
106  1.0500000000000E+00  1.6930184855742E-02  1.2535336438679E+00
107  1.0600000000000E+00 -9.6634599240118E-03  1.2743541377092E+00
108  1.0700000000000E+00 -3.5751027223481E-02  1.2949073105169E+00
109  1.0800000000000E+00 -6.1301469833393E-02  1.3150877293097E+00
110  1.0900000000000E+00 -8.6281998780832E-02  1.3347777979554E+00
111  1.1000000000000E+00 -1.1065805787156E-01  1.3538481661845E+00
112  1.1100000000000E+00 -1.3439333033331E-01  1.3721582990603E+00
113  1.1200000000000E+00 -1.5744977952156E-01  1.3895572106851E+00
114  1.1300000000000E+00 -1.7978772548723E-01  1.4058843648350E+00
115  1.1400000000000E+00 -2.0136595902370E-01  1.4209707440575E+00
116  1.1500000000000E+00 -2.2214189460854E-01  1.4346400875263E+00
117  1.1600000000000E+00 -2.4207176342827E-01  1.4467102966150E+00
118  1.1700000000000E+00 -2.6111084742162E-01  1.4569950057266E+00
119  1.1800000000000E+00 -2.7921375499135E-01  1.4653053143736E+00
120  1.1900000000000E+00 -2.9633473871514E-01  1.4714516748455E+00
121  1.2000000000000E+00 -3.1242805502541E-01  1.4752459280003E+00
122  1.2100000000000E+00 -3.2744836542044E-01  1.4765034777582E+00
123  1.2200000000000E+00 -3.4135117831213E-01  1.4750455927561E+00
124  1.2300000000000E+00 -3.5409333009487E-01  1.4707018212812E+00
125  1.2400000000000E+00 -3.6563350343858E-01  1.4633125030733E+00
126  1.2500000000000E+00 -3.7593278014870E-01  1.4527313587883E+00
127  1.2600000000000E+00 -3.8495522519385E-01  1.4388281348519E+00
128  1.2700000000000E+00 -3.9266849767228E-01  1.4214912780893E+00
129  1.2800000000000E+00 -3.9904448355147E-01  1.4006306108093E+00
130  1.2900000000000E+00 -4.0405994397078E-01  1.3761799729737E+00
131  1.3000000000000E+00 -4.0769717173585E-01  1.3480997936473E+00
132  1.3100000000000E+00 -4.0994464733213E-01  1.3163795490272E+00
133  1.3200000000000E+00 -4.1079768434651E-01  1.2810400590064E+00
134  1.3300000000000E+00 -4.1025905259467E-01  1.2421355683792E+00
135  1.3400000000000E+00 -4.0833956549299E-01  1.1997555523954E+00
136  1.3500000000000E+00 -4.0505861627413E-01  1.1540261793726E+00
137  1.3600000000000E+00 -4.0044464552026E-01  1.1051113554642E+00
138  1.3700000000000E+00 -3.9453552016232E-01  1.0532132684043E+00
139  1.3800000000000E+00 -3.8737880154434E-01  9.9857233802684E-01
140  1.3900000000000E+00 -3.7903187737687E-01  9.4146647158217E-01
141  1.4000000000000E+00 -3.6956192938832E-01  8.8220951129121E-01
142  1.4100000000000E+00 -3.5904570520067E-01  8.2114875009903E-01
143  1.4200000000000E+00 -3.4756905942053E-01  7.5866137925754E-01
144  1.4300000000000E+00 -3.3522622507783E-01  6.9514971793705E-01
145  1.4400000000000E+00 -3.2211877241533E-01  6.3103506072043E-01
146  1.4500000000000E+00 -3.0835420755974E-01  5.6674996331622E-01
147  1.4600000000000E+00 -2.9404415879105E-01  5.0272877013556E-01
148  1.4700000000000E+00 -2.7930209296946E-01  4.3939616951204E-01
149  1.4800000000000E+00 -2.6424049788866E-01  3.7715353617548E-01
150  1.4900000000000E+00 -2.4896746213769E-01  3.1636281122631E-01
151  1.5000000000000E+00 -2.3358263260182E-01  2.5732794592428E-01
152  1.5100000000000E+00 -2.1817246615113E-01  2.0027362906695E-01
153  1.5200000000000E+00 -2.0281216142145E-01  1.4536233134915E-01
154  1.5300000000000E+00 -1.8757317000325E-01  9.2740223433926E-02
155  1.5400000000000E+00 -1.7252458707593E-01  4.2546207354394E-02
156  1.5500000000000E+00 -1.5773267420109E-01 -5.0898548108338E-03
157  1.5600000000000E+00 -1.4326049775637E-01 -5.0048286403469E-02
158  1.5700000000000E+00 -1.2916757137408E-01 -9.2220763999304E-02
159  1.5800000000000E+00 -1.1550952085883E-01 -1.3151140831254E-01
160  1.5900000000000E+00 -1.0233777433413E-01 -1.6783778969163E-01
161  1.6000000000000E+00 -8.9699280699228E-02 -2.0113183729528E-01
162  1.6100000000000E+00 -7.7636258991460E-02 -2.3134064312842E-01
163  1.6200000000000E+00 -6.6185982070220E-02 -2.5842714763380E-01
164  1.6300000000000E+00 -5.5380595188549E-02 -2.8237070736574E-01
165  1.6400000000000E+00 -4.5246973416481E-02 -3.0316752782961E-01
166  1.6500000000000E+00 -3.5806618620481E-02 -3.2083096037256E-01
167  1.6600000000000E+00 -2.7075596906527E-02 -3.3539166048567E-01
168  1.6700000000000E+00 -1.9064518384005E-02 -3.4689759959222E-01
169  1.6800000000000E+00 -1.1778559264871E-02 -3.5541393104888E-01
170  1.6900000000000E+00 -5.2175266663480E-03 -3.6102270874853E-01
171  1.7000000000000E+00  6.2403409449197E-04 -3.6382245904009E-01
172  1.7100000000000E+00  5.7566902939494E-03 -3.6392760794141E-01
173  1.7200000000000E+00  1.0195931667810E-02 -3.6146776706789E-01
174  1.7300000000000E+00  1.3961940689057E-02 -3.5658688291243E-01
175  1.7400000000000E+00  1.7079324993930E-02 -3.4944225554304E-01
176  1.7500000000000E+00  1.9576814036976E-02 -3.4020343398079E-01
177  1.7600000000000E+00  2.1486922409630E-02 -3.2905099677957E-01
178  1.7700000000000E+00  2.2845582571723E-02 -3.1617522743306E-01
179  1.7800000000000E+00  2.3691750035035E-02 -3.0177469524903E-01
180  1.7900000000000E+00  2.4066984332105E-02 -2.8605475339059E-01
181  1.8000000000000E+00  2.4015009328463E-02 -2.6922596656197E-01
182  1.8100000000000E+00  2.3581256638255E-02 -2.5150248152337E-01
183  1.8200000000000E+00  2.2812396102488E-02 -2.3310035434466E-01
184  1.8300000000000E+00  2.1755857416956E-02 -2.1423584874909E-01
185  1.8400000000000E+00  2.0459347082249E-02 -1.9512372018846E-01
186  1.8500000000000E+00  1.8970364950543E-02 -1.7597550068500E-01
187  1.8600000000000E+00  1.7335724546614E-02 -1.5699779904783E-01
188  1.8700000000000E+00  1.5601083961078E-02 -1.3839063971572E-01
189  1.8800000000000E+00  1.3810469095686E-02 -1.2034578629152E-01
190  1.8900000000000E+00  1.2005883975695E-02 -1.0304533307633E-01
191  1.9000000000000E+00  1.0226801418764E-02 -8.6659973795194E-02
192  1.9100000000000E+00  8.5085126594405E-03 -7.1343865198558E-02
193  1.9200000000000E+00  6.8825179391449E-03 -5.7235495823776E-02
194  1.9300000000000E+00  5.3798212762472E-03 -4.4467266094763E-02
195  1.9400000000000E+00  4.0273185418544E-03 -3.3154824443772E-02
196  1.9500000000000E+00  2.8475906287459E-03 -2.3396279824173E-02
197  1.9600000000000E+00  1.8586623915869E-03 -1.5271348845942E-02
198  1.9700000000000E+00  1.0740961413514E-03 -8.8430222855505E-03
199  1.9800000000000E+00  5.0058102617616E-04 -4.1378181250501E-03
200  1.9900000000000E+00  1.4536477141423E-04 -1.2090065617441E-03
201  2.0000000000000E+00  7.9184073588256E-06 -6.6431806566829E-05
202  2.0100000000000E+00 -4.8006519996751E-06  4.0363602694544E-05
203  2.0200000000000E+00  2.1738823980022E-06 -1.8173034127323E-05
204  2.03 -0.  0.
205  2.04 -0. -0.
206  2.05 -0. -0.
207  2.06  0.  0.
208  2.07  0.  0.
209  2.08  0.  0.
210  2.09  0.  0.
211  2.10  0.  0.
212  2.11  0.  0.
213  2.12  0.  0.
214  2.13  0.  0.
215  2.14  0.  0.
216  2.15  0.  0.
217  2.16  0.  0.
218  2.17  0.  0.
219  2.18  0.  0.
220  2.19  0.  0.
221  2.20  0.  0.
222  2.21  0.  0.
223  2.22  0.  0.
224  2.23  0.  0.
225  2.24  0.  0.
226  2.25  0.  0.
227  2.26  0.  0.
228  2.27  0.  0.
229  2.28  0.  0.
230  2.29  0.  0.
231  2.30  0.  0.
232  2.31  0.  0.
233  2.32  0.  0.
234  2.33  0.  0.
235  2.34  0.  0.
236  2.35  0.  0.
237  2.36  0.  0.
238  2.37  0.  0.
239  2.38  0.  0.
240  2.39  0.  0.
241  2.40  0.  0.
242  2.41  0.  0.
243  2.42  0.  0.
244  2.43  0.  0.
245  2.44  0.  0.
246  2.45  0.  0.
247  2.46  0.  0.
248  2.47  0.  0.
249  2.48  0.  0.
250  2.49  0.  0.
251  2.50  0.  0.
252  2.51  0.  0.
253  2.52  0.  0.
254  2.53  0.  0.
255  2.54  0.  0.
256  2.55  0.  0.
257  2.56  0.  0.
258  2.57  0.  0.
259  2.58  0.  0.
260  2.59  0.  0.
261  2.60  0.  0.
262  2.61  0.  0.
263  2.62  0.  0.
264  2.63  0.  0.
265  2.64  0.  0.
266  2.65  0.  0.
267  2.66  0.  0.
268  2.67  0.  0.
269  2.68  0.  0.
270  2.69  0.  0.
271  2.70  0.  0.
272  2.71  0.  0.
273  2.72  0.  0.
274  2.73  0.  0.
275  2.74  0.  0.
276  2.75  0.  0.
277  2.76  0.  0.
278  2.77  0.  0.
279  2.78  0.  0.
280  2.79  0.  0.
281  2.80  0.  0.
282  2.81  0.  0.
283  2.82  0.  0.
284  2.83  0.  0.
285  2.84  0.  0.
286  2.85  0.  0.
287  2.86  0.  0.
288  2.87  0.  0.
289  2.88  0.  0.
290  2.89  0.  0.
291  2.90  0.  0.
292  2.91  0.  0.
293  2.92  0.  0.
294  2.93  0.  0.
295  2.94  0.  0.
296  2.95  0.  0.
297  2.96  0.  0.
298  2.97  0.  0.
299  2.98  0.  0.
300  2.99  0.  0.
301  3.00  0.  0.
302  3.01  0.  0.
303  3.02  0.  0.
304  3.03  0.  0.
305  3.04  0.  0.
306  3.05  0.  0.
307  3.06  0.  0.
308  3.07  0.  0.
309  3.08  0.  0.
310  3.09  0.  0.
311  3.10  0.  0.
312  3.11  0.  0.
313  3.12  0.  0.
314  3.13  0.  0.
315  3.14  0.  0.
316  3.15  0.  0.
317  3.16  0.  0.
318  3.17  0.  0.
319  3.18  0.  0.
320  3.19  0.  0.
321  3.20  0.  0.
322  3.21  0.  0.
323  3.22  0.  0.
324  3.23  0.  0.
325  3.24  0.  0.
326  3.25  0.  0.
327  3.26  0.  0.
328  3.27  0.  0.
329  3.28  0.  0.
330  3.29  0.  0.
331  3.30  0.  0.
332  3.31  0.  0.
333  3.32  0.  0.
334  3.33  0.  0.
335  3.34  0.  0.
336  3.35  0.  0.
337  3.36  0.  0.
338  3.37  0.  0.
339  3.38  0.  0.
340  3.39  0.  0.
341  3.40  0.  0.
342  3.41  0.  0.
343  3.42  0.  0.
344  3.43  0.  0.
345  3.44  0.  0.
346  3.45  0.  0.
347  3.46  0.  0.
348  3.47  0.  0.
349  3.48  0.  0.
350  3.49  0.  0.
351  3.50  0.  0.
352  3.51  0.  0.
353  3.52  0.  0.
354  3.53  0.  0.
355  3.54  0.  0.
356  3.55  0.  0.
357  3.56  0.  0.
358  3.57  0.  0.
359  3.58  0.  0.
360  3.59  0.  0.
361  3.60  0.  0.
362  3.61  0.  0.
363  3.62  0.  0.
364  3.63  0.  0.
365  3.64  0.  0.
366  3.65  0.  0.
367  3.66  0.  0.
368  3.67  0.  0.
369  3.68  0.  0.
370  3.69  0.  0.
371  3.70  0.  0.
372  3.71  0.  0.
373  3.72  0.  0.
374  3.73  0.  0.
375  3.74  0.  0.
376  3.75  0.  0.
377  3.76  0.  0.
378  3.77  0.  0.
379  3.78  0.  0.
380  3.79  0.  0.
381  3.80  0.  0.
382  3.81  0.  0.
383  3.82  0.  0.
384  3.83  0.  0.
385  3.84  0.  0.
386  3.85  0.  0.
387  3.86  0.  0.
388  3.87  0.  0.
389  3.88  0.  0.
390  3.89  0.  0.
391  3.90  0.  0.
392  3.91  0.  0.
393  3.92  0.  0.
394  3.93  0.  0.
395  3.94  0.  0.
396  3.95  0.  0.
397  3.96  0.  0.
398  3.97  0.  0.
399  3.98  0.  0.
400  3.99  0.  0.
401  4.00  0.  0.
402  4.01  0.  0.
403  4.02  0.  0.
404  4.03  0.  0.
405  4.04  0.  0.
406  4.05  0.  0.
407  4.06  0.  0.
408  4.07  0.  0.
409  4.08  0.  0.
410  4.09  0.  0.
411  4.10  0.  0.
412  4.11  0.  0.
413  4.12  0.  0.
414  4.13  0.  0.
415  4.14  0.  0.
416  4.15  0.  0.
417  4.16  0.  0.
418  4.17  0.  0.
419  4.18  0.  0.
420  4.19  0.  0.
421  4.20  0.  0.
422  4.21  0.  0.
423  4.22  0.  0.
424  4.23  0.  0.
425  4.24  0.  0.
426  4.25  0.  0.
427  4.26  0.  0.
428  4.27  0.  0.
429  4.28  0.  0.
430  4.29  0.  0.
431  4.30  0.  0.
432  4.31  0.  0.
433  4.32  0.  0.
434  4.33  0.  0.
435  4.34  0.  0.
436  4.35  0.  0.
437  4.36  0.  0.
438  4.37  0.  0.
439  4.38  0.  0.
440  4.39  0.  0.
441  4.40  0.  0.
442  4.41  0.  0.
443  4.42  0.  0.
444  4.43  0.  0.
445  4.44  0.  0.
446  4.45  0.  0.
447  4.46  0.  0.
448  4.47  0.  0.
449  4.48  0.  0.
450  4.49  0.  0.
451  4.50  0.  0.
452  4.51  0.  0.
453  4.52  0.  0.
454  4.53  0.  0.
455  4.54  0.  0.
456  4.55  0.  0.
457  4.56  0.  0.
458  4.57  0.  0.
459  4.58  0.  0.
460  4.59  0.  0.
461  4.60  0.  0.
462  4.61  0.  0.
463  4.62  0.  0.
464  4.63  0.  0.
465  4.64  0.  0.
466  4.65  0.  0.
467  4.66  0.  0.
468  4.67  0.  0.
469  4.68  0.  0.
470  4.69  0.  0.
471  4.70  0.  0.
472  4.71  0.  0.
473  4.72  0.  0.
474  4.73  0.  0.
475  4.74  0.  0.
476  4.75  0.  0.
477  4.76  0.  0.
478  4.77  0.  0.
479  4.78  0.  0.
480  4.79  0.  0.
481  4.80  0.  0.
482  4.81  0.  0.
483  4.82  0.  0.
484  4.83  0.  0.
485  4.84  0.  0.
486  4.85  0.  0.
487  4.86  0.  0.
488  4.87  0.  0.
489  4.88  0.  0.
490  4.89  0.  0.
491  4.90  0.  0.
492  4.91  0.  0.
493  4.92  0.  0.
494  4.93  0.  0.
495  4.94  0.  0.
496  4.95  0.  0.
497  4.96  0.  0.
498  4.97  0.  0.
499  4.98  0.  0.
500  4.99  0.  0.
501  5.00  0.  0.
502  5.01  0.  0.
503  5.02  0.  0.
504  5.03  0.  0.
505  5.04  0.  0.
506  5.05  0.  0.
507  5.06  0.  0.
508  5.07  0.  0.
509  5.08  0.  0.
510  5.09  0.  0.
511  5.10  0.  0.
512  5.11  0.  0.
513  5.12  0.  0.
514  5.13  0.  0.
515  5.14  0.  0.
516  5.15  0.  0.
517  5.16  0.  0.
518  5.17  0.  0.
519  5.18  0.  0.
520  5.19  0.  0.
521  5.20  0.  0.
522  5.21  0.  0.
523  5.22  0.  0.
524  5.23  0.  0.
525  5.24  0.  0.
526  5.25  0.  0.
527  5.26  0.  0.
528  5.27  0.  0.
529  5.28  0.  0.
530  5.29  0.  0.
531  5.30  0.  0.
532  5.31  0.  0.
533  5.32  0.  0.
534  5.33  0.  0.
535  5.34  0.  0.
536  5.35  0.  0.
537  5.36  0.  0.
538  5.37  0.  0.
539  5.38  0.  0.
540  5.39  0.  0.
541  5.40  0.  0.
542  5.41  0.  0.
543  5.42  0.  0.
544  5.43  0.  0.
545  5.44  0.  0.
546  5.45  0.  0.
547  5.46  0.  0.
548  5.47  0.  0.
549  5.48  0.  0.
550  5.49  0.  0.
551  5.50  0.  0.
552  5.51  0.  0.
553  5.52  0.  0.
554  5.53  0.  0.
555  5.54  0.  0.
556  5.55  0.  0.
557  5.56  0.  0.
558  5.57  0.  0.
559  5.58  0.  0.
560  5.59  0.  0.
561  5.60  0.  0.
562  5.61  0.  0.
563  5.62  0.  0.
564  5.63  0.  0.
565  5.64  0.  0.
566  5.65  0.  0.
567  5.66  0.  0.
568  5.67  0.  0.
569  5.68  0.  0.
570  5.69  0.  0.
571  5.70  0.  0.
572  5.71  0.  0.
573  5.72  0.  0.
574  5.73  0.  0.
575  5.74  0.  0.
576  5.75  0.  0.
577  5.76  0.  0.
578  5.77  0.  0.
579  5.78  0.  0.
580  5.79  0.  0.
581  5.80  0.  0.
582  5.81  0.  0.
583  5.82  0.  0.
584  5.83  0.  0.
585  5.84  0.  0.
586  5.85  0.  0.
587  5.86  0.  0.
588  5.87  0.  0.
589  5.88  0.  0.
590  5.89  0.  0.
591  5.90  0.  0.
592  5.91  0.  0.
593  5.92  0.  0.
594  5.93  0.  0.
595  5.94  0.  0.
596  5.95  0.  0.
597  5.96  0.  0.
598  5.97  0.  0.
599  5.98  0.  0.
600  5.99  0.  0.
1                         5.6428092886490E+00  3.5715118479181E-01
1  0.0000000000000E+00  3.5746895027389E-09 -2.2928739157324E-08
2  1.0000000000000E-02  1.3103782652747E-03 -2.5791712381464E-03
3  2.0000000000000E-02  5.2325809592115E-03 -1.0271432539745E-02
4  3.0000000000000E-02  1.1739933655250E-02 -2.2941801080688E-02
5  4.0000000000000E-02  2.0788383167866E-02 -4.0367873641953E-02
6  5.0000000000000E-02  3.2317096625981E-02 -6.2243632769740E-02
7  6.0000000000000E-02  4.6249285876639E-02 -8.8184684064129E-02
8  7.0000000000000E-02  6.2493243221393E-02 -1.1773483512947E-01
9  8.0000000000000E-02  8.0943570913103E-02 -1.5037390379105E-01
10  9.0000000000000E-02  1.0148258357482E-01 -1.8552662216900E-01
11  1.0000000000000E-01  1.2398185980160E-01 -2.2257248445761E-01
12  1.1000000000000E-01  1.4830391672208E-01 -2.6085637010645E-01
13  1.2000000000000E-01  1.7430397927254E-01 -2.9969976081475E-01
14  1.3000000000000E-01  2.0183181440778E-01 -3.3841235955862E-01
15  1.4000000000000E-01  2.3073359946742E-01 -3.7630391294582E-01
16  1.5000000000000E-01  2.6085379345016E-01 -4.1269603465363E-01
17  1.6000000000000E-01  2.9203698003117E-01 -4.4693382761338E-01
18  1.7000000000000E-01  3.2412965178711E-01 -4.7839710596121E-01
19  1.8000000000000E-01  3.5698190625822E-01 -5.0651102452509E-01
20  1.9000000000000E-01  3.9044902615692E-01 -5.3075593364462E-01
21  2.0000000000000E-01  4.2439291819840E-01 -5.5067629025844E-01
22  2.1000000000000E-01  4.5868338764144E-01 -5.6588847221488E-01
23  2.2000000000000E-01  4.9319922864232E-01 -5.7608736139877E-01
24  2.3000000000000E-01  5.2782911388710E-01 -5.8105158219940E-01
25  2.4000000000000E-01  5.6247227061863E-01 -5.8064730471964E-01
26  2.5000000000000E-01  5.9703893405051E-01 -5.7483054655163E-01
27  2.6000000000000E-01  6.3145057319102E-01 -5.6364793250741E-01
28  2.7000000000000E-01  6.6563988821601E-01 -5.4723589795670E-01
29  2.8000000000000E-01  6.9955058265674E-01 -5.2581834794183E-01
30  2.9000000000000E-01  7.3313691773440E-01 -4.9970281055987E-01
31  3.0000000000000E-01  7.6636306010493E-01 -4.6927514877681E-01
32  3.1000000000000E-01  7.9920223800595E-01 -4.3499291942833E-01
33  3.2000000000000E-01  8.3163572425634E-01 -3.9737749125011E-01
34  3.3000000000000E-01  8.6365166768581E-01 -3.5700505497112E-01
35  3.4000000000000E-01  8.9524379731152E-01 -3.1449667743692E-01
36  3.5000000000000E-01  9.2641002588227E-01 -2.7050756808182E-01
37  3.6000000000000E-01  9.5715098123628E-01 -2.2571573956120E-01
38  3.7000000000000E-01  9.8746849523377E-01 -1.8081025475739E-01
39  3.8000000000000E-01  1.0173640808057E+00 -1.3647925950730E-01
40  3.9000000000000E-01  1.0468374278918E+00 -9.3398004145624E-02
41  4.0000000000000E-01  1.0758849487181E+00 -5.2217057250148E-02
42  4.1000000000000E-01  1.1044984019928E+00 -1.3550911811731E-02
43  4.2000000000000E-01  1.1326636241950E+00  2.2032822516286E-02
44  4.3000000000000E-01  1.1603593942137E+00  5.4023457291076E-02
45  4.4000000000000E-01  1.1875564552063E+00  8.1976322456246E-02
46  4.5000000000000E-01  1.2142167147165E+00  1.0552076787716E-01
47  4.6000000000000E-01  1.2402926408851E+00  1.2436693279523E-01
48  4.7000000000000E-01  1.2657268690450E+00  1.3831116757215E-01
49  4.8000000000000E-01  1.2904520291923E+00  1.4724001485961E-01
50  4.9000000000000E-01  1.3143908008176E+00  1.5113268165612E-01
51  5.0000000000000E-01  1.3374561974605E+00  1.5006195918573E-01
52  5.1000000000000E-01  1.3595520791590E+00  1.4419357371518E-01
53  5.2000000000000E-01  1.3805738868109E+00  1.3378397787013E-01
54  5.3000000000000E-01  1.4004095883916E+00  1.1917661826492E-01
55  5.4000000000000E-01  1.4189408230778E+00  1.0079674087433E-01
56  5.5000000000000E-01  1.4360442256593E+00  7.9144820115058E-02
57  5.6000000000000E-01  1.4515929102661E+00  5.4788720648011E-02
58  5.7000000000000E-01  1.4654580894378E+00  2.8354722071032E-02
59  5.8000000000000E-01  1.4775108019837E+00  5.1755558468455E-04
60  5.9000000000000E-01  1.4876237209659E+00 -2.8010381938807E-02
61  6.0000000000000E-01  1.4956730115207E+00 -5.6490457544293E-02
62  6.1000000000000E-01  1.5015402071520E+00 -8.4169686057907E-02
63  6.2000000000000E-01  1.5051140725927E+00 -1.1029287163864E-01
64  6.3000000000000E-01  1.5062924213612E+00 -1.3411480657553E-01
65  6.4000000000000E-01  1.5049838567234E+00 -1.5491232644562E-01
66  6.5000000000000E-01  1.5011094059120E+00 -1.7199602371327E-01
67  6.6000000000000E-01  1.4946040191200E+00 -1.8472142816368E-01
68  6.7000000000000E-01  1.4854179069574E+00 -1.9249947210502E-01
69  6.8000000000000E-01  1.4735176926912E+00 -1.9480607086765E-01
70  6.9000000000000E-01  1.4588873586372E+00 -1.9119066455172E-01
71  7.0000000000000E-01  1.4415289694826E+00 -1.8128358494514E-01
72  7.1000000000000E-01  1.4214631590286E+00 -1.6480213173984E-01
73  7.2000000000000E-01  1.3987293707920E+00 -1.4155526425072E-01
74  7.3000000000000E-01  1.3733858470114E+00 -1.1144683840812E-01
75  7.4000000000000E-01  1.3455093648131E+00 -7.4477343431420E-02
76  7.5000000000000E-01  1.3151947225084E+00 -3.0744117872101E-02
77  7.6000000000000E-01  1.2825539831606E+00  1.9559949799245E-02
78  7.7000000000000E-01  1.2477154865913E+00  7.6149205641397E-02
79  7.8000000000000E-01  1.2108226448273E+00  1.3864944473004E-01
80  7.9000000000000E-01  1.1720325395494E+00  2.0660347720489E-01
81  8.0000000000000E-01  1.1315143433357E+00  2.7947794540762E-01
82  8.1000000000000E-01  1.0894475893294E+00  3.5667127151492E-01
83  8.2000000000000E-01  1.0460203163716E+00  4.3752259714486E-01
84  8.3000000000000E-01  1.0014271185607E+00  5.2132156098419E-01
85  8.4000000000000E-01  9.5586712962039E-01  6.0731874779895E-01
86  8.5000000000000E-01  9.0954197334032E-01  6.9473663245258E-01
87  8.6000000000000E-01  8.6265371169445E-01  7.8278083590831E-01
88  8.7000000000000E-01  8.1540282202838E-01  8.7065150673229E-01
89  8.8000000000000E-01  7.6798623395779E-01  9.5755464136961E-01
90  8.9000000000000E-01  7.2059545534024E-01  1.0427131594205E+00
91  9.0000000000000E-01  6.7341481490638E-01  1.1253775562163E+00
92  9.1000000000000E-01  6.2661984689448E-01  1.2048359640549E+00
93  9.2000000000000E-01  5.8037584036929E-01  1.2804234653143E+00
94  9.3000000000000E-01  5.3483657287157E-01  1.3515305150990E+00
95  9.4000000000000E-01  4.9014324469578E-01  1.4176103478018E+00
96  9.5000000000000E-01  4.4642362649262E-01  1.4781852606751E+00
97  9.6000000000000E-01  4.0379142910404E-01  1.5328516878675E+00
98  9.7000000000000E-01  3.6234590063329E-01  1.5812840000024E+00
99  9.8000000000000E-01  3.2217165179754E-01  1.6232369868992E+00
100  9.9000000000000E-01  2.8333870668013E-01  1.6585470040325E+00
101  1.0000000000000E+00  2.4590277215869E-01  1.6871317864230E+00
102  1.0100000000000E+00  2.0990571560318E-01  1.7089889564355E+00
103  1.0200000000000E+00  1.7537623697637E-01  1.7241932740519E+00
104  1.0300000000000E+00  1.4233071828865E-01  1.7328926991961E+00
105  1.0400000000000E+00  1.1077423050553E-01  1.7353033553247E+00
106  1.0500000000000E+00  8.0701675533874E-02  1.7317035013738E+00
107  1.0600000000000E+00  5.2099038854080E-02  1.7224266350355E+00
108  1.0700000000000E+00  2.4944726749420E-02  1.7078538639952E+00
109  1.0800000000000E+00 -7.8903906105751E-04  1.6884056929360E+00
110  1.0900000000000E+00 -2.5134797248980E-02  1.6645333827245E+00
111  1.1000000000000E+00 -4.8128421207535E-02  1.6367100440763E+00
112  1.1100000000000E+00 -6.9807719636385E-02  1.6054216311199E+00
113  1.1200000000000E+00 -9.0211090364390E-02  1.5711580006120E+00
114  1.1300000000000E+00 -1.0937625318617E-01  1.5344042001532E+00
115  1.1400000000000E+00 -1.2733908585193E-01  1.4956321436421E+00
116  1.1500000000000E+00 -1.4413258534003E-01  1.4552928245778E+00
117  1.1600000000000E+00 -1.5978597416817E-01  1.4138092077088E+00
118  1.1700000000000E+00 -1.7432396883994E-01  1.3715699272652E+00
119  1.1800000000000E+00 -1.8776622458843E-01  1.3289239056240E+00
120  1.1900000000000E+00 -2.0012696745088E-01  1.2861759901492E+00
121  1.2000000000000E+00 -2.1141482141243E-01  1.2435836882293E+00
122  1.2100000000000E+00 -2.2163283494903E-01  1.2013550614744E+00
123  1.2200000000000E+00 -2.3077870784652E-01  1.1596478200114E+00
124  1.2300000000000E+00 -2.3884521567334E-01  1.1185696367807E+00
125  1.2400000000000E+00 -2.4582082584257E-01  1.0781796803088E+00
126  1.2500000000000E+00 -2.5169049579308E-01  1.0384913424717E+00
127  1.2600000000000E+00 -2.5643664051093E-01  9.9947611562901E-01
128  1.2700000000000E+00 -2.6004025343395E-01  9.6106855145893E-01
129  1.2800000000000E+00 -2.6248216171142E-01  9.2317221169203E-01
130  1.2900000000000E+00 -2.6374439387856E-01  8.8566649911289E-01
131  1.3000000000000E+00 -2.6381163523757E-01  8.4841423564882E-01
132  1.3100000000000E+00 -2.6267274358715E-01  8.1126983293136E-01
133  1.3200000000000E+00 -2.6032229542488E-01  7.7408787961991E-01
134  1.3300000000000E+00 -2.5676213031955E-01  7.3673194881086E-01