Dy    ONCVPSP-4.0.1  r_core=   2.00176   1.60430   1.90822   1.50213
66.0000     20.0000      250626    zatom,zion,pspd
8      11   3     4   600     0    pspcod,pspxc,lmax,lloc,mmax,r2well
5.99000000  9.00000000  0.00000000    rchrg fchrg qchrg
2     2     2     2     0    nproj
1     1           extension_switch
0                         9.5993464907915E+00  2.5063521407874E-01
1  0.0000000000000E+00  4.1434189412826E-11 -2.4877350179864E-10
2  1.0000000000000E-02  5.1556473012061E-02 -1.2648455465443E-02
3  2.0000000000000E-02  1.0305690263866E-01 -2.5309503363423E-02
4  3.0000000000000E-02  1.5444520672304E-01 -3.7995106470893E-02
5  4.0000000000000E-02  2.0566522674827E-01 -5.0715975332287E-02
6  5.0000000000000E-02  2.5666069260269E-01 -6.3480959776498E-02
7  6.0000000000000E-02  3.0737519085051E-01 -7.6296461416702E-02
8  7.0000000000000E-02  3.5775213762702E-01 -8.9165873833709E-02
9  8.0000000000000E-02  4.0773475723656E-01 -1.0208905689482E-01
10  9.0000000000000E-02  4.5726606748001E-01 -1.1506185135292E-01
11  1.0000000000000E-01  5.0628887267795E-01 -1.2807563950705E-01
12  1.1000000000000E-01  5.5474576528596E-01 -1.4111695728915E-01
13  1.2000000000000E-01  6.0257913692046E-01 -1.5416716267473E-01
14  1.3000000000000E-01  6.4973119952742E-01 -1.6720216480217E-01
15  1.4000000000000E-01  6.9614401733283E-01 -1.8019221762979E-01
16  1.5000000000000E-01  7.4175955011409E-01 -1.9310178136619E-01
17  1.6000000000000E-01  7.8651970822552E-01 -2.0588945428306E-01
18  1.7000000000000E-01  8.3036641970048E-01 -2.1850797686385E-01
19  1.8000000000000E-01  8.7324170963717E-01 -2.3090430956418E-01
20  1.9000000000000E-01  9.1508779195713E-01 -2.4301978476413E-01
21  2.0000000000000E-01  9.5584717350378E-01 -2.5479033278426E-01
22  2.1000000000000E-01  9.9546277032634E-01 -2.6614678112440E-01
23  2.2000000000000E-01  1.0338780358706E+00 -2.7701522536906E-01
24  2.3000000000000E-01  1.0710371006754E+00 -2.8731746949545E-01
25  2.4000000000000E-01  1.1068849230514E+00 -2.9697153262250E-01
26  2.5000000000000E-01  1.1413674500997E+00 -3.0589221856056E-01
27  2.6000000000000E-01  1.1744317883106E+00 -3.1399174386385E-01
28  2.7000000000000E-01  1.2060263828712E+00 -3.2118041946189E-01
29  2.8000000000000E-01  1.2361012047017E+00 -3.2736738035188E-01
30  2.9000000000000E-01  1.2646079441408E+00 -3.3246135728297E-01
31  3.0000000000000E-01  1.2915002101028E+00 -3.3637148385323E-01
32  3.1000000000000E-01  1.3167337334439E+00 -3.3900813198478E-01
33  3.2000000000000E-01  1.3402665731955E+00 -3.4028376833673E-01
34  3.3000000000000E-01  1.3620593242512E+00 -3.4011382387208E-01
35  3.4000000000000E-01  1.3820753250347E+00 -3.3841756851122E-01
36  3.5000000000000E-01  1.4002808636259E+00 -3.3511898258816E-01
37  3.6000000000000E-01  1.4166453807828E+00 -3.3014761667639E-01
38  3.7000000000000E-01  1.4311416682682E+00 -3.2343943127500E-01
39  3.8000000000000E-01  1.4437460608755E+00 -3.1493760783916E-01
40  3.9000000000000E-01  1.4544386205427E+00 -3.0459332271063E-01
41  4.0000000000000E-01  1.4632033109521E+00 -2.9236647564705E-01
42  4.1000000000000E-01  1.4700281610339E+00 -2.7822636486920E-01
43  4.2000000000000E-01  1.4749054158249E+00 -2.6215230084053E-01
44  4.3000000000000E-01  1.4778316731801E+00 -2.4413415136193E-01
45  4.4000000000000E-01  1.4788080048919E+00 -2.2417281100688E-01
46  4.5000000000000E-01  1.4778400608428E+00 -2.0228058843358E-01
47  4.6000000000000E-01  1.4749381549004E+00 -1.7848150569203E-01
48  4.7000000000000E-01  1.4701173313569E+00 -1.5281150428757E-01
49  4.8000000000000E-01  1.4633974108209E+00 -1.2531855346987E-01
50  4.9000000000000E-01  1.4548030145852E+00 -9.6062656977334E-02
51  5.0000000000000E-01  1.4443635666212E+00 -6.5115755282605E-02
52  5.1000000000000E-01  1.4321132724840E+00 -3.2561521244158E-02
53  5.2000000000000E-01  1.4180910745586E+00  1.5049520282555E-03
54  5.3000000000000E-01  1.4023405832270E+00  3.6977571351870E-02
55  5.4000000000000E-01  1.3849099836965E+00  7.3739770987414E-02
56  5.5000000000000E-01  1.3658519183923E+00  1.1166514580310E-01
57  5.6000000000000E-01  1.3452233449869E+00  1.5061818740035E-01
58  5.7000000000000E-01  1.3230853703114E+00  1.9045511951126E-01
59  5.8000000000000E-01  1.2995030605694E+00  2.3102482797926E-01
60  5.9000000000000E-01  1.2745452284497E+00  2.7216987964390E-01
61  6.0000000000000E-01  1.2482841979114E+00  3.1372762348068E-01
62  6.1000000000000E-01  1.2207955475880E+00  3.5553136640353E-01
63  6.2000000000000E-01  1.1921578339336E+00  3.9741161522975E-01
64  6.3000000000000E-01  1.1624522953984E+00  4.3919737544292E-01
65  6.4000000000000E-01  1.1317625390892E+00  4.8071749657919E-01
66  6.5000000000000E-01  1.1001742115222E+00  5.2180205330940E-01
67  6.6000000000000E-01  1.0677746552318E+00  5.6228375060940E-01
68  6.7000000000000E-01  1.0346525531324E+00  6.0199934080199E-01
69  6.8000000000000E-01  1.0008975626661E+00  6.4079103973303E-01
70  6.9000000000000E-01  9.6659994188439E-01  6.7850792891173E-01
71  7.0000000000000E-01  9.3185016972039E-01  7.1500733010951E-01
72  7.1000000000000E-01  8.9673856279812E-01  7.5015613868170E-01
73  7.2000000000000E-01  8.6135489120538E-01  7.8383210175344E-01
74  7.3000000000000E-01  8.2578799571668E-01  8.1592502740401E-01
75  7.4000000000000E-01  7.9012540899857E-01  8.4633791109335E-01
76  7.5000000000000E-01  7.5445298335719E-01  8.7498796580954E-01
77  7.6000000000000E-01  7.1885452759690E-01  9.0180754277358E-01
78  7.7000000000000E-01  6.8341145554973E-01  9.2674493002560E-01
79  7.8000000000000E-01  6.4820244880598E-01  9.4976501683270E-01
80  7.9000000000000E-01  6.1330313612804E-01  9.7084981260514E-01
81  8.0000000000000E-01  5.7878579196027E-01  9.8999880988500E-01
82  8.1000000000000E-01  5.4471905635899E-01  1.0072291819775E+00
83  8.2000000000000E-01  5.1116767855702E-01  1.0225758069286E+00
84  8.3000000000000E-01  4.7819228624795E-01  1.0360911108093E+00
85  8.4000000000000E-01  4.4584918252529E-01  1.0478447246497E+00
86  8.5000000000000E-01  4.1419017224281E-01  1.0579229508561E+00
87  8.6000000000000E-01  3.8326241937393E-01  1.0664280365538E+00
88  8.7000000000000E-01  3.5310833674114E-01  1.0734772530075E+00
89  8.8000000000000E-01  3.2376550926208E-01  1.0792017820752E+00
90  8.9000000000000E-01  2.9526665161744E-01  1.0837454125481E+00
91  9.0000000000000E-01  2.6763960098920E-01  1.0872630511998E+00
92  9.1000000000000E-01  2.4090734524600E-01  1.0899190554087E+00
93  9.2000000000000E-01  2.1508808666824E-01  1.0918853963130E+00
94  9.3000000000000E-01  1.9019534100933E-01  1.0933396635980E+00
95  9.4000000000000E-01  1.6623807138338E-01  1.0944629251854E+00
96  9.5000000000000E-01  1.4322085615600E-01  1.0954374572786E+00
97  9.6000000000000E-01  1.2114408969382E-01  1.0964443624038E+00
98  9.7000000000000E-01  1.0000421450490E-01  1.0976610952532E+00
99  9.8000000000000E-01  7.9793982974905E-02  1.0992589182727E+00
100  9.9000000000000E-01  6.0502746578898E-02  1.1014003110125E+00
101  1.0000000000000E+00  4.2116770125088E-02  1.1042363592681E+00
102  1.0100000000000E+00  2.4619568269888E-02  1.1079041519488E+00
103  1.0200000000000E+00  7.9922612342161E-03  1.1125242154066E+00
104  1.0300000000000E+00 -7.7860536467059E-03  1.1181980166119E+00
105  1.0400000000000E+00 -2.2737918191733E-02  1.1250055680504E+00
106  1.0500000000000E+00 -3.6887121378464E-02  1.1330031685157E+00
107  1.0600000000000E+00 -5.0258303248019E-02  1.1422213150454E+00
108  1.0700000000000E+00 -6.2876559095954E-02  1.1526628220847E+00
109  1.0800000000000E+00 -7.4767048529293E-02  1.1643011845077E+00
110  1.0900000000000E+00 -8.5954614133165E-02  1.1770792213705E+00
111  1.1000000000000E+00 -9.6463414618296E-02  1.1909080371635E+00
112  1.1100000000000E+00 -1.0631657740987E-01  1.2056663368452E+00
113  1.1200000000000E+00 -1.1553587568401E-01  1.2212001300334E+00
114  1.1300000000000E+00 -1.2414143485660E-01  1.2373228583686E+00
115  1.1400000000000E+00 -1.3215147347533E-01  1.2538159781909E+00
116  1.1500000000000E+00 -1.3958208335621E-01  1.2704300282686E+00
117  1.1600000000000E+00 -1.4644705363294E-01  1.2868862092942E+00
118  1.1700000000000E+00 -1.5275774315057E-01  1.3028784982294E+00
119  1.1800000000000E+00 -1.5852300532323E-01  1.3180763162068E+00
120  1.1900000000000E+00 -1.6374916918870E-01  1.3321277636088E+00
121  1.2000000000000E+00 -1.6844007992178E-01  1.3446634300117E+00
122  1.2100000000000E+00 -1.7259720150628E-01  1.3553007798741E+00
123  1.2200000000000E+00 -1.7621978361204E-01  1.3636491071278E+00
124  1.2300000000000E+00 -1.7930509396075E-01  1.3693150430178E+00
125  1.2400000000000E+00 -1.8184871659920E-01  1.3719085917211E+00
126  1.2500000000000E+00 -1.8384491551147E-01  1.3710496572117E+00
127  1.2600000000000E+00 -1.8528706188862E-01  1.3663750125215E+00
128  1.2700000000000E+00 -1.8616812213603E-01  1.3575456489523E+00
129  1.2800000000000E+00 -1.8648120230703E-01  1.3442544276348E+00
130  1.2900000000000E+00 -1.8622014311432E-01  1.3262339391859E+00
131  1.3000000000000E+00 -1.8538015797799E-01  1.3032644589625E+00
132  1.3100000000000E+00 -1.8395850469182E-01  1.2751818652569E+00
133  1.3200000000000E+00 -1.8195517923920E-01  1.2418853658220E+00
134  1.3300000000000E+00 -1.7937361804542E-01  1.2033448541350E+00
135  1.3400000000000E+00 -1.7622139250085E-01  1.1596076906584E+00
136  1.3500000000000E+00 -1.7251087691293E-01  1.1108046758519E+00
137  1.3600000000000E+00 -1.6825986814188E-01  1.0571549507988E+00
138  1.3700000000000E+00 -1.6349213202854E-01  9.9896952786010E-01
139  1.3800000000000E+00 -1.5823784830164E-01  9.3665311740331E-01
140  1.3900000000000E+00 -1.5253392195909E-01  8.7070387742595E-01
141  1.4000000000000E+00 -1.4642412513220E-01  8.0171067054354E-01
142  1.4100000000000E+00 -1.3995902913192E-01  7.3034736703058E-01
143  1.4200000000000E+00 -1.3319568175936E-01  6.5736368355176E-01
144  1.4300000000000E+00 -1.2619697994943E-01  5.8357199395319E-01
145  1.4400000000000E+00 -1.1903068247622E-01  5.0982949173322E-01
146  1.4500000000000E+00 -1.1176800168687E-01  4.3701502257835E-01
147  1.4600000000000E+00 -1.0448170704985E-01  3.6599983964998E-01
148  1.4700000000000E+00 -9.7243666705399E-02  2.9761146416464E-01
149  1.4800000000000E+00 -9.0121744529314E-02  2.3258973396404E-01
150  1.4900000000000E+00 -8.3175964941527E-02  1.7153408161927E-01
151  1.5000000000000E+00 -7.6453919986150E-02  1.1484205453287E-01
152  1.5100000000000E+00 -6.9985312252286E-02  6.2637986734175E-02
153  1.5200000000000E+00 -6.3785112405212E-02  1.4836937495473E-02
154  1.5300000000000E+00 -5.7863853776274E-02 -2.8688547910246E-02
155  1.5400000000000E+00 -5.2230018869567E-02 -6.8071347495935E-02
156  1.5500000000000E+00 -4.6890011126932E-02 -1.0345089504611E-01
157  1.5600000000000E+00 -4.1848260202537E-02 -1.3497228174699E-01
158  1.5700000000000E+00 -3.7107312121110E-02 -1.6278565912736E-01
159  1.5800000000000E+00 -3.2667923326423E-02 -1.8704563691796E-01
160  1.5900000000000E+00 -2.8529157583453E-02 -2.0791068735830E-01
161  1.6000000000000E+00 -2.4688485326277E-02 -2.2554255729239E-01
162  1.6100000000000E+00 -2.1141885081226E-02 -2.4010568888049E-01
163  1.6200000000000E+00 -1.7883946575204E-02 -2.5176665008582E-01
164  1.6300000000000E+00 -1.4907975150777E-02 -2.6069357596674E-01
165  1.6400000000000E+00 -1.2206097169907E-02 -2.6705562102907E-01
166  1.6500000000000E+00 -9.7693660444424E-03 -2.7102242358297E-01
167  1.6600000000000E+00 -7.5878685570456E-03 -2.7276358276862E-01
168  1.6700000000000E+00 -5.6508311715943E-03 -2.7244814851220E-01
169  1.6800000000000E+00 -3.9467260267640E-03 -2.7024412485397E-01
170  1.6900000000000E+00 -2.4633763034144E-03 -2.6631798722440E-01
171  1.7000000000000E+00 -1.1880606987088E-03 -2.6083421378027E-01
172  1.7100000000000E+00 -1.0761673733425E-04 -2.5395483106222E-01
173  1.7200000000000E+00  7.9145736052080E-04 -2.4583897448883E-01
174  1.7300000000000E+00  1.5229024814653E-03 -2.3664246361285E-01
175  1.7400000000000E+00  2.1006003462166E-03 -2.2651739255255E-01
176  1.7500000000000E+00  2.5384773839319E-03 -2.1561173570457E-01
177  1.7600000000000E+00  2.8504109795678E-03 -2.0406896901848E-01
178  1.7700000000000E+00  3.0501383047273E-03 -1.9202770703736E-01
179  1.7800000000000E+00  3.1511679215398E-03 -1.7962135576513E-01
180  1.7900000000000E+00  3.1666943664473E-03 -1.6697778177040E-01
181  1.8000000000000E+00  3.1095158935510E-03 -1.5421899771101E-01
182  1.8100000000000E+00  2.9919555372611E-03 -1.4146086433828E-01
183  1.8200000000000E+00  2.8257856716020E-03 -1.2881280938820E-01
184  1.8300000000000E+00  2.6221562239649E-03 -1.1637756364102E-01
185  1.8400000000000E+00  2.3915266702999E-03 -1.0425091416590E-01
186  1.8500000000000E+00  2.1436019960509E-03 -9.2521475603261E-02
187  1.8600000000000E+00  1.8872724598697E-03 -8.1270476173123E-02
188  1.8700000000000E+00  1.6305608492673E-03 -7.0571595531019E-02
189  1.8800000000000E+00  1.3805494559632E-03 -6.0490587231623E-02
190  1.8900000000000E+00  1.1433982386829E-03 -5.1085725268808E-02
191  1.9000000000000E+00  9.2419310233132E-04 -4.2406692567154E-02
192  1.9100000000000E+00  7.2533425299702E-04 -3.4479612628594E-02
193  1.9200000000000E+00  5.4746003184090E-04 -2.7315691783883E-02
194  1.9300000000000E+00  3.9398857869237E-04 -2.0954089268130E-02
195  1.9400000000000E+00  2.6693093781883E-04 -1.5423357061837E-02
196  1.9500000000000E+00  1.6694913912694E-04 -1.0742029805566E-02
197  1.9600000000000E+00  9.3326215516417E-05 -6.9183986641961E-03
198  1.9700000000000E+00  4.3966023908069E-05 -3.9515409886983E-03
199  1.9800000000000E+00  1.5411064383017E-05 -1.8232472016522E-03
200  1.9900000000000E+00  2.8258876746552E-06 -5.2496043762572E-04
201  2.0000000000000E+00  4.2541995922458E-08 -2.8325401814480E-05
202  2.0100000000000E+00 -6.4087321341859E-09  1.7140252039089E-05
203  2.0200000000000E+00  2.1495331231277E-08 -7.7961006453418E-06
204  2.03 -0.  0.
205  2.04 -0. -0.
206  2.05 -0. -0.
207  2.06  0.  0.
208  2.07  0.  0.
209  2.08  0.  0.
210  2.09  0.  0.
211  2.10  0.  0.
212  2.11  0.  0.
213  2.12  0.  0.
214  2.13  0.  0.
215  2.14  0.  0.
216  2.15  0.  0.
217  2.16  0.  0.
218  2.17  0.  0.
219  2.18  0.  0.
220  2.19  0.  0.
221  2.20  0.  0.
222  2.21  0.  0.
223  2.22  0.  0.
224  2.23  0.  0.
225  2.24  0.  0.
226  2.25  0.  0.
227  2.26  0.  0.
228  2.27  0.  0.
229  2.28  0.  0.
230  2.29  0.  0.
231  2.30  0.  0.
232  2.31  0.  0.
233  2.32  0.  0.
234  2.33  0.  0.
235  2.34  0.  0.
236  2.35  0.  0.
237  2.36  0.  0.
238  2.37  0.  0.
239  2.38  0.  0.
240  2.39  0.  0.
241  2.40  0.  0.
242  2.41  0.  0.
243  2.42  0.  0.
244  2.43  0.  0.
245  2.44  0.  0.
246  2.45  0.  0.
247  2.46  0.  0.
248  2.47  0.  0.
249  2.48  0.  0.
250  2.49  0.  0.
251  2.50  0.  0.
252  2.51  0.  0.
253  2.52  0.  0.
254  2.53  0.  0.
255  2.54  0.  0.
256  2.55  0.  0.
257  2.56  0.  0.
258  2.57  0.  0.
259  2.58  0.  0.
260  2.59  0.  0.
261  2.60  0.  0.
262  2.61  0.  0.
263  2.62  0.  0.
264  2.63  0.  0.
265  2.64  0.  0.
266  2.65  0.  0.
267  2.66  0.  0.
268  2.67  0.  0.
269  2.68  0.  0.
270  2.69  0.  0.
271  2.70  0.  0.
272  2.71  0.  0.
273  2.72  0.  0.
274  2.73  0.  0.
275  2.74  0.  0.
276  2.75  0.  0.
277  2.76  0.  0.
278  2.77  0.  0.
279  2.78  0.  0.
280  2.79  0.  0.
281  2.80  0.  0.
282  2.81  0.  0.
283  2.82  0.  0.
284  2.83  0.  0.
285  2.84  0.  0.
286  2.85  0.  0.
287  2.86  0.  0.
288  2.87  0.  0.
289  2.88  0.  0.
290  2.89  0.  0.
291  2.90  0.  0.
292  2.91  0.  0.
293  2.92  0.  0.
294  2.93  0.  0.
295  2.94  0.  0.
296  2.95  0.  0.
297  2.96  0.  0.
298  2.97  0.  0.
299  2.98  0.  0.
300  2.99  0.  0.
301  3.00  0.  0.
302  3.01  0.  0.
303  3.02  0.  0.
304  3.03  0.  0.
305  3.04  0.  0.
306  3.05  0.  0.
307  3.06  0.  0.
308  3.07  0.  0.
309  3.08  0.  0.
310  3.09  0.  0.
311  3.10  0.  0.
312  3.11  0.  0.
313  3.12  0.  0.
314  3.13  0.  0.
315  3.14  0.  0.
316  3.15  0.  0.
317  3.16  0.  0.
318  3.17  0.  0.
319  3.18  0.  0.
320  3.19  0.  0.
321  3.20  0.  0.
322  3.21  0.  0.
323  3.22  0.  0.
324  3.23  0.  0.
325  3.24  0.  0.
326  3.25  0.  0.
327  3.26  0.  0.
328  3.27  0.  0.
329  3.28  0.  0.
330  3.29  0.  0.
331  3.30  0.  0.
332  3.31  0.  0.
333  3.32  0.  0.
334  3.33  0.  0.
335  3.34  0.  0.
336  3.35  0.  0.
337  3.36  0.  0.
338  3.37  0.  0.
339  3.38  0.  0.
340  3.39  0.  0.
341  3.40  0.  0.
342  3.41  0.  0.
343  3.42  0.  0.
344  3.43  0.  0.
345  3.44  0.  0.
346  3.45  0.  0.
347  3.46  0.  0.
348  3.47  0.  0.
349  3.48  0.  0.
350  3.49  0.  0.
351  3.50  0.  0.
352  3.51  0.  0.
353  3.52  0.  0.
354  3.53  0.  0.
355  3.54  0.  0.
356  3.55  0.  0.
357  3.56  0.  0.
358  3.57  0.  0.
359  3.58  0.  0.
360  3.59  0.  0.
361  3.60  0.  0.
362  3.61  0.  0.
363  3.62  0.  0.
364  3.63  0.  0.
365  3.64  0.  0.
366  3.65  0.  0.
367  3.66  0.  0.
368  3.67  0.  0.
369  3.68  0.  0.
370  3.69  0.  0.
371  3.70  0.  0.
372  3.71  0.  0.
373  3.72  0.  0.
374  3.73  0.  0.
375  3.74  0.  0.
376  3.75  0.  0.
377  3.76  0.  0.
378  3.77  0.  0.
379  3.78  0.  0.
380  3.79  0.  0.
381  3.80  0.  0.
382  3.81  0.  0.
383  3.82  0.  0.
384  3.83  0.  0.
385  3.84  0.  0.
386  3.85  0.  0.
387  3.86  0.  0.
388  3.87  0.  0.
389  3.88  0.  0.
390  3.89  0.  0.
391  3.90  0.  0.
392  3.91  0.  0.
393  3.92  0.  0.
394  3.93  0.  0.
395  3.94  0.  0.
396  3.95  0.  0.
397  3.96  0.  0.
398  3.97  0.  0.
399  3.98  0.  0.
400  3.99  0.  0.
401  4.00  0.  0.
402  4.01  0.  0.
403  4.02  0.  0.
404  4.03  0.  0.
405  4.04  0.  0.
406  4.05  0.  0.
407  4.06  0.  0.
408  4.07  0.  0.
409  4.08  0.  0.
410  4.09  0.  0.
411  4.10  0.  0.
412  4.11  0.  0.
413  4.12  0.  0.
414  4.13  0.  0.
415  4.14  0.  0.
416  4.15  0.  0.
417  4.16  0.  0.
418  4.17  0.  0.
419  4.18  0.  0.
420  4.19  0.  0.
421  4.20  0.  0.
422  4.21  0.  0.
423  4.22  0.  0.
424  4.23  0.  0.
425  4.24  0.  0.
426  4.25  0.  0.
427  4.26  0.  0.
428  4.27  0.  0.
429  4.28  0.  0.
430  4.29  0.  0.
431  4.30  0.  0.
432  4.31  0.  0.
433  4.32  0.  0.
434  4.33  0.  0.
435  4.34  0.  0.
436  4.35  0.  0.
437  4.36  0.  0.
438  4.37  0.  0.
439  4.38  0.  0.
440  4.39  0.  0.
441  4.40  0.  0.
442  4.41  0.  0.
443  4.42  0.  0.
444  4.43  0.  0.
445  4.44  0.  0.
446  4.45  0.  0.
447  4.46  0.  0.
448  4.47  0.  0.
449  4.48  0.  0.
450  4.49  0.  0.
451  4.50  0.  0.
452  4.51  0.  0.
453  4.52  0.  0.
454  4.53  0.  0.
455  4.54  0.  0.
456  4.55  0.  0.
457  4.56  0.  0.
458  4.57  0.  0.
459  4.58  0.  0.
460  4.59  0.  0.
461  4.60  0.  0.
462  4.61  0.  0.
463  4.62  0.  0.
464  4.63  0.  0.
465  4.64  0.  0.
466  4.65  0.  0.
467  4.66  0.  0.
468  4.67  0.  0.
469  4.68  0.  0.
470  4.69  0.  0.
471  4.70  0.  0.
472  4.71  0.  0.
473  4.72  0.  0.
474  4.73  0.  0.
475  4.74  0.  0.
476  4.75  0.  0.
477  4.76  0.  0.
478  4.77  0.  0.
479  4.78  0.  0.
480  4.79  0.  0.
481  4.80  0.  0.
482  4.81  0.  0.
483  4.82  0.  0.
484  4.83  0.  0.
485  4.84  0.  0.
486  4.85  0.  0.
487  4.86  0.  0.
488  4.87  0.  0.
489  4.88  0.  0.
490  4.89  0.  0.
491  4.90  0.  0.
492  4.91  0.  0.
493  4.92  0.  0.
494  4.93  0.  0.
495  4.94  0.  0.
496  4.95  0.  0.
497  4.96  0.  0.
498  4.97  0.  0.
499  4.98  0.  0.
500  4.99  0.  0.
501  5.00  0.  0.
502  5.01  0.  0.
503  5.02  0.  0.
504  5.03  0.  0.
505  5.04  0.  0.
506  5.05  0.  0.
507  5.06  0.  0.
508  5.07  0.  0.
509  5.08  0.  0.
510  5.09  0.  0.
511  5.10  0.  0.
512  5.11  0.  0.
513  5.12  0.  0.
514  5.13  0.  0.
515  5.14  0.  0.
516  5.15  0.  0.
517  5.16  0.  0.
518  5.17  0.  0.
519  5.18  0.  0.
520  5.19  0.  0.
521  5.20  0.  0.
522  5.21  0.  0.
523  5.22  0.  0.
524  5.23  0.  0.
525  5.24  0.  0.
526  5.25  0.  0.
527  5.26  0.  0.
528  5.27  0.  0.
529  5.28  0.  0.
530  5.29  0.  0.
531  5.30  0.  0.
532  5.31  0.  0.
533  5.32  0.  0.
534  5.33  0.  0.
535  5.34  0.  0.
536  5.35  0.  0.
537  5.36  0.  0.
538  5.37  0.  0.
539  5.38  0.  0.
540  5.39  0.  0.
541  5.40  0.  0.
542  5.41  0.  0.
543  5.42  0.  0.
544  5.43  0.  0.
545  5.44  0.  0.
546  5.45  0.  0.
547  5.46  0.  0.
548  5.47  0.  0.
549  5.48  0.  0.
550  5.49  0.  0.
551  5.50  0.  0.
552  5.51  0.  0.
553  5.52  0.  0.
554  5.53  0.  0.
555  5.54  0.  0.
556  5.55  0.  0.
557  5.56  0.  0.
558  5.57  0.  0.
559  5.58  0.  0.
560  5.59  0.  0.
561  5.60  0.  0.
562  5.61  0.  0.
563  5.62  0.  0.
564  5.63  0.  0.
565  5.64  0.  0.
566  5.65  0.  0.
567  5.66  0.  0.
568  5.67  0.  0.
569  5.68  0.  0.
570  5.69  0.  0.
571  5.70  0.  0.
572  5.71  0.  0.
573  5.72  0.  0.
574  5.73  0.  0.
575  5.74  0.  0.
576  5.75  0.  0.
577  5.76  0.  0.
578  5.77  0.  0.
579  5.78  0.  0.
580  5.79  0.  0.
581  5.80  0.  0.
582  5.81  0.  0.
583  5.82  0.  0.
584  5.83  0.  0.
585  5.84  0.  0.
586  5.85  0.  0.
587  5.86  0.  0.
588  5.87  0.  0.
589  5.88  0.  0.
590  5.89  0.  0.
591  5.90  0.  0.
592  5.91  0.  0.
593  5.92  0.  0.
594  5.93  0.  0.
595  5.94  0.  0.
596  5.95  0.  0.
597  5.96  0.  0.
598  5.97  0.  0.
599  5.98  0.  0.
600  5.99  0.  0.
1                         6.6533849309936E+00  1.9499951127498E-01
1  0.0000000000000E+00  2.5620353061306E-11  8.4808371436651E-10
2  1.0000000000000E-02  1.2089359077572E-03  1.5525787613918E-03
3  2.0000000000000E-02  4.8320900462096E-03  6.1986233486450E-03
4  3.0000000000000E-02  1.0858511109653E-02  1.3903136700917E-02
5  4.0000000000000E-02  1.9269978404426E-02  2.4608050060537E-02
6  5.0000000000000E-02  3.0041049026051E-02  3.8232611008876E-02
7  6.0000000000000E-02  4.3139123814259E-02  5.4673923755906E-02
8  7.0000000000000E-02  5.8524531993500E-02  7.3807638720626E-02
9  8.0000000000000E-02  7.6150634380944E-02  9.5488787591417E-02
10  9.0000000000000E-02  9.5963945018893E-02  1.1955275920557E-01
11  1.0000000000000E-01  1.1790427106400E-01  1.4581641073949E-01
12  1.1000000000000E-01  1.4190487074171E-01  1.7407930785520E-01
13  1.2000000000000E-01  1.6789262915092E-01  2.0412508660867E-01
14  1.3000000000000E-01  1.9578825168064E-01  2.3572292909450E-01
15  1.4000000000000E-01  2.2550647477766E-01  2.6862914398370E-01
16  1.5000000000000E-01  2.5695629378141E-01  3.0258884231281E-01
17  1.6000000000000E-01  2.9004120751895E-01  3.3733769810955E-01
18  1.7000000000000E-01  3.2465947932930E-01  3.7260378269914E-01
19  1.8000000000000E-01  3.6070441416187E-01  4.0810946083488E-01
20  1.9000000000000E-01  3.9806465136746E-01  4.4357333614612E-01
21  2.0000000000000E-01  4.3662447277261E-01  4.7871223280255E-01
22  2.1000000000000E-01  4.7626412559815E-01  5.1324319976985E-01
23  2.2000000000000E-01  5.1686015974975E-01  5.4688552358344E-01
24  2.3000000000000E-01  5.5828577897277E-01  5.7936273520783E-01
25  2.4000000000000E-01  6.0041120532386E-01  6.1040459628653E-01
26  2.5000000000000E-01  6.4310405636845E-01  6.3974904993188E-01
27  2.6000000000000E-01  6.8622973446550E-01  6.6714412116447E-01
28  2.7000000000000E-01  7.2965182744809E-01  6.9234975219454E-01
29  2.8000000000000E-01  7.7323251995128E-01  7.1513955795340E-01
30  2.9000000000000E-01  8.1683301457609E-01  7.3530248763156E-01
31  3.0000000000000E-01  8.6031396201098E-01  7.5264437847274E-01
32  3.1000000000000E-01  9.0353589915969E-01  7.6698938870651E-01
33  3.2000000000000E-01  9.4635969424691E-01  7.7818129728100E-01
34  3.3000000000000E-01  9.8864699779150E-01  7.8608465897851E-01
35  3.4000000000000E-01  1.0302606982512E+00  7.9058580455928E-01
36  3.5000000000000E-01  1.0710653810532E+00  7.9159367677346E-01
37  3.6000000000000E-01  1.1109277896339E+00  7.8904049440748E-01
38  3.7000000000000E-01  1.1497172870156E+00  7.8288223797066E-01
39  3.8000000000000E-01  1.1873063163558E+00  7.7309895217755E-01
40  3.9000000000000E-01  1.2235708588092E+00  7.5969486202092E-01
41  4.0000000000000E-01  1.2583908869495E+00  7.4269830094791E-01
42  4.1000000000000E-01  1.2916508119107E+00  7.2216145142784E-01
43  4.2000000000000E-01  1.3232399223208E+00  6.9815990001674E-01
44  4.3000000000000E-01  1.3530528130236E+00  6.7079201085815E-01
45  4.4000000000000E-01  1.3809898015118E+00  6.4017812339373E-01
46  4.5000000000000E-01  1.4069573299349E+00  6.0645958186422E-01
47  4.6000000000000E-01  1.4308683504933E+00  5.6979760594077E-01
48  4.7000000000000E-01  1.4526426919925E+00  5.3037201351407E-01
49  4.8000000000000E-01  1.4722074053087E+00  4.8837980826129E-01
50  4.9000000000000E-01  1.4894970855096E+00  4.4403364608445E-01
51  5.0000000000000E-01  1.5044541683824E+00  3.9756019584800E-01
52  5.1000000000000E-01  1.5170291991523E+00  3.4919841101693E-01
53  5.2000000000000E-01  1.5271810712210E+00  2.9919772978840E-01
54  5.3000000000000E-01  1.5348772328264E+00  2.4781622210635E-01
55  5.4000000000000E-01  1.5400938596143E+00  1.9531870252919E-01
56  5.5000000000000E-01  1.5428159912283E+00  1.4197482827922E-01
57  5.6000000000000E-01  1.5430376301586E+00  8.8057201922688E-02
58  5.7000000000000E-01  1.5407618012525E+00  3.3839498009056E-02
59  5.8000000000000E-01  1.5360005704696E+00 -2.0405367367437E-02
60  5.9000000000000E-01  1.5287750216689E+00 -7.4407005734902E-02
61  6.0000000000000E-01  1.5191151904419E+00 -1.2789924664359E-01
62  6.1000000000000E-01  1.5070599542515E+00 -1.8062173289571E-01
63  6.2000000000000E-01  1.4926568784006E+00 -2.3232140551808E-01
64  6.3000000000000E-01  1.4759620176380E+00 -2.8275386492091E-01
65  6.4000000000000E-01  1.4570396735063E+00 -3.3168459641043E-01
66  6.5000000000000E-01  1.4359621078475E+00 -3.7889005012283E-01
67  6.6000000000000E-01  1.4128092132026E+00 -4.2415856750003E-01
68  6.7000000000000E-01  1.3876681411722E+00 -4.6729114860541E-01
69  6.8000000000000E-01  1.3606328901381E+00 -5.0810205685570E-01
70  6.9000000000000E-01  1.3318038540822E+00 -5.4641926009105E-01
71  7.0000000000000E-01  1.3012873345736E+00 -5.8208470928651E-01
72  7.1000000000000E-01  1.2691950183226E+00 -6.1495445859662E-01
73  7.2000000000000E-01  1.2356434230246E+00 -6.4489863277917E-01
74  7.3000000000000E-01  1.2007533145213E+00 -6.7180125034075E-01
75  7.4000000000000E-01  1.1646490986040E+00 -6.9555991293938E-01
76  7.5000000000000E-01  1.1274581910552E+00 -7.1608537364905E-01
77  7.6000000000000E-01  1.0893103697785E+00 -7.3330099859333E-01
78  7.7000000000000E-01  1.0503371130920E+00 -7.4714213816713E-01
79  7.8000000000000E-01  1.0106709284583E+00 -7.5755542555901E-01
80  7.9000000000000E-01  9.7044467608895E-01 -7.6449802152853E-01
81  8.0000000000000E-01  9.2979089199466E-01 -7.6793682537209E-01
82  8.1000000000000E-01  8.8884111514453E-01 -7.6784767269442E-01
83  8.2000000000000E-01  8.4772522345611E-01 -7.6421454098475E-01
84  8.3000000000000E-01  8.0657078335223E-01 -7.5702878405879E-01
85  8.4000000000000E-01  7.6550241759522E-01 -7.4628841616149E-01
86  8.5000000000000E-01  7.2464119604042E-01 -7.3199746592822E-01
87  8.6000000000000E-01  6.8410405383945E-01 -7.1416541947010E-01
88  8.7000000000000E-01  6.4400324146889E-01 -6.9280677058942E-01
89  8.8000000000000E-01  6.0444581076285E-01 -6.6794069454522E-01
90  8.9000000000000E-01  5.6553314088842E-01 -6.3959085989613E-01
91  9.0000000000000E-01  5.2736050792344E-01 -6.0778539075512E-01
92  9.1000000000000E-01  4.9001670137668E-01 -5.7255698932295E-01
93  9.2000000000000E-01  4.5358369063508E-01 -5.3394322584521E-01
94  9.3000000000000E-01  4.1813634393227E-01 -4.9198700018443E-01
95  9.4000000000000E-01  3.8374220201069E-01 -4.4673717604873E-01
96  9.5000000000000E-01  3.5046130819946E-01 -3.9824938559504E-01
97  9.6000000000000E-01  3.1834609615487E-01 -3.4658699867166E-01
98  9.7000000000000E-01  2.8744133601380E-01 -2.9182224740416E-01
99  9.8000000000000E-01  2.5778413919714E-01 -2.3403749321472E-01
100  9.9000000000000E-01  2.2940402157344E-01 -1.7332661971891E-01
101  1.0000000000000E+00  2.0232302415841E-01 -1.0979653132141E-01
102  1.0100000000000E+00  1.7655588998657E-01 -4.3568733760093E-02
103  1.0200000000000E+00  1.5211029525319E-01  2.5219030618214E-02
104  1.0300000000000E+00  1.2898713229200E-01  9.6411123398513E-02
105  1.0400000000000E+00  1.0718084143059E-01  1.6983236014739E-01
106  1.0500000000000E+00  8.6679788258163E-02  2.4528640658434E-01
107  1.0600000000000E+00  6.7466682351353E-02  3.2255426013670E-01
108  1.0700000000000E+00  4.9519033039498E-02  4.0139285847858E-01
109  1.0800000000000E+00  3.2809637355468E-02  4.8153385863522E-01
110  1.0900000000000E+00  1.7307094915599E-02  5.6268263181206E-01
111  1.1000000000000E+00  2.9763441075709E-03  6.4451752024407E-01
112  1.1100000000000E+00 -1.0220786357433E-02  7.2668940299714E-01
113  1.1200000000000E+00 -2.2325016748957E-02  8.0882161775136E-01
114  1.1300000000000E+00 -3.3379052924712E-02  8.9051028510502E-01
115  1.1400000000000E+00 -4.3427026860607E-02  9.7132508079146E-01
116  1.1500000000000E+00 -5.2513947836726E-02  1.0508104993708E+00
117  1.1600000000000E+00 -6.0685171064934E-02  1.1284876503480E+00
118  1.1700000000000E+00 -6.7985890530152E-02  1.2038566242577E+00
119  1.1800000000000E+00 -7.4460662733891E-02  1.2763994619312E+00
120  1.1900000000000E+00 -8.0152967871798E-02  1.3455837548930E+00
121  1.2000000000000E+00 -8.5104814742606E-02  1.4108668985120E+00
122  1.2100000000000E+00 -8.9356395368675E-02  1.4717010120679E+00
123  1.2200000000000E+00 -9.2945794907926E-02  1.5275385312573E+00
124  1.2300000000000E+00 -9.5908761941462E-02  1.5778384686189E+00
125  1.2400000000000E+00 -9.8278543635485E-02  1.6220733259792E+00
126  1.2500000000000E+00 -1.0008578958642E-01  1.6597366300240E+00
127  1.2600000000000E+00 -1.0135852736196E-01  1.6903510474186E+00
128  1.2700000000000E+00 -1.0212221184830E-01  1.7134770195015E+00
129  1.2800000000000E+00 -1.0239984948487E-01  1.7287218380727E+00
130  1.2900000000000E+00 -1.0221219731858E-01  1.7357490632456E+00
131  1.3000000000000E+00 -1.0157803553030E-01  1.7342881615479E+00
132  1.3100000000000E+00 -1.0051451065780E-01  1.7241442170365E+00
133  1.3200000000000E+00 -9.9037545166901E-02  1.7052075402017E+00
134  1.3300000000000E+00 -9.7162307290878E-02  1.6774629685698E+00