Dy    ONCVPSP-4.0.1  r_core=   2.00176   1.60430   1.90822   1.50213
66.0000     20.0000      250626    zatom,zion,pspd
8      11   3     4   600     0    pspcod,pspxc,lmax,lloc,mmax,r2well
5.99000000 11.10000000  0.00000000    rchrg fchrg qchrg
2     2     2     2     0    nproj
1     1           extension_switch
0                         6.8112808264944E+00  7.7103787130812E-01
1  0.0000000000000E+00  8.6707863111712E-11 -2.7362167046019E-10
2  1.0000000000000E-02  4.2327337370670E-02 -2.8155917928647E-03
3  2.0000000000000E-02  8.4630521627344E-02 -5.6648390365935E-03
4  3.0000000000000E-02  1.2688521889104E-01 -8.5807904959565E-03
5  4.0000000000000E-02  1.6906673601971E-01 -1.1595288361944E-02
6  5.0000000000000E-02  2.1114984662171E-01 -1.4738381890798E-02
7  6.0000000000000E-02  2.5310862378146E-01 -1.8037761158589E-02
8  7.0000000000000E-02  2.9491628163200E-01 -2.1518217312593E-02
9  8.0000000000000E-02  3.3654502782251E-01 -2.5201135427097E-02
10  9.0000000000000E-02  3.7796592882213E-01 -2.9104025734288E-02
11  1.0000000000000E-01  4.1914878987506E-01 -3.3240098603687E-02
12  1.1000000000000E-01  4.6006205127809E-01 -3.7617888190215E-02
13  1.2000000000000E-01  5.0067270249080E-01 -4.2240929165654E-02
14  1.3000000000000E-01  5.4094621541281E-01 -4.7107490396149E-02
15  1.4000000000000E-01  5.8084649797272E-01 -5.2210368834562E-02
16  1.5000000000000E-01  6.2033586897239E-01 -5.7536746267166E-02
17  1.6000000000000E-01  6.5937505491868E-01 -6.3068110895255E-02
18  1.7000000000000E-01  6.9792320935557E-01 -6.8780245050220E-02
19  1.8000000000000E-01  7.3593795498486E-01 -7.4643279642671E-02
20  1.9000000000000E-01  7.7337544863425E-01 -8.0621815238701E-02
21  2.0000000000000E-01  8.1019046890175E-01 -8.6675108946907E-02
22  2.1000000000000E-01  8.4633652607495E-01 -9.2757325595099E-02
23  2.2000000000000E-01  8.8176599369701E-01 -9.8817850983366E-02
24  2.3000000000000E-01  9.1643026092888E-01 -1.0480166432665E-01
25  2.4000000000000E-01  9.5027990464220E-01 -1.1064976635323E-01
26  2.5000000000000E-01  9.8326487997167E-01 -1.1629965891098E-01
27  2.6000000000000E-01  1.0153347278606E+00 -1.2168587135840E-01
28  2.7000000000000E-01  1.0464387979521E+00 -1.2674052848806E-01
29  2.8000000000000E-01  1.0765264850116E+00 -1.3139395425164E-01
30  2.9000000000000E-01  1.1055474769164E+00 -1.3557530513378E-01
31  3.0000000000000E-01  1.1334520121149E+00 -1.3921322666120E-01
32  3.1000000000000E-01  1.1601911443478E+00 -1.4223652623805E-01
33  3.2000000000000E-01  1.1857170123297E+00 -1.4457485527187E-01
34  3.3000000000000E-01  1.2099831120192E+00 -1.4615939339971E-01
35  3.4000000000000E-01  1.2329445690598E+00 -1.4692352754303E-01
36  3.5000000000000E-01  1.2545584089475E+00 -1.4680351851496E-01
37  3.6000000000000E-01  1.2747838224789E+00 -1.4573914797423E-01
38  3.7000000000000E-01  1.2935824240591E+00 -1.4367433866720E-01
39  3.8000000000000E-01  1.3109185004897E+00 -1.4055774112262E-01
40  3.9000000000000E-01  1.3267592479313E+00 -1.3634328025944E-01
41  4.0000000000000E-01  1.3410749948212E+00 -1.3099065573726E-01
42  4.1000000000000E-01  1.3538394086446E+00 -1.2446579031479E-01
43  4.2000000000000E-01  1.3650296845904E+00 -1.1674122098385E-01
44  4.3000000000000E-01  1.3746267142755E+00 -1.0779642820772E-01
45  4.4000000000000E-01  1.3826152328962E+00 -9.7618099209603E-02
46  4.5000000000000E-01  1.3889839433538E+00 -8.6200321922731E-02
47  4.6000000000000E-01  1.3937256161040E+00 -7.3544706922720E-02
48  4.7000000000000E-01  1.3968371637001E+00 -5.9660435407195E-02
49  4.8000000000000E-01  1.3983196892264E+00 -4.4564232061203E-02
50  4.9000000000000E-01  1.3981785080550E+00 -2.8280262441141E-02
51  5.0000000000000E-01  1.3964231426058E+00 -1.0839955316766E-02
52  5.1000000000000E-01  1.3930672900339E+00  7.7182487779819E-03
53  5.2000000000000E-01  1.3881287630224E+00  2.7349220726863E-02
54  5.3000000000000E-01  1.3816294041034E+00  4.8001534892760E-02
55  5.4000000000000E-01  1.3735949741816E+00  6.9617926431821E-02
56  5.5000000000000E-01  1.3640550161690E+00  9.2135809488611E-02
57  5.6000000000000E-01  1.3530426948780E+00  1.1548785119418E-01
58  5.7000000000000E-01  1.3405946145371E+00  1.3960259572711E-01
59  5.8000000000000E-01  1.3267506155066E+00  1.6440513208976E-01
60  5.9000000000000E-01  1.3115535519640E+00  1.8981779870316E-01
61  6.0000000000000E-01  1.2950490525093E+00  2.1576091744261E-01
62  6.1000000000000E-01  1.2772852657970E+00  2.4215354932691E-01
63  6.2000000000000E-01  1.2583125934430E+00  2.6891426374220E-01
64  6.3000000000000E-01  1.2381834125723E+00  2.9596191283269E-01
65  6.4000000000000E-01  1.2169517904649E+00  3.2321640252635E-01
66  6.5000000000000E-01  1.1946731938333E+00  3.5059945158892E-01
67  6.6000000000000E-01  1.1714041953048E+00  3.7803533011493E-01
68  6.7000000000000E-01  1.1472021797089E+00  4.0545156897080E-01
69  6.8000000000000E-01  1.1221250527595E+00  4.3277963190339E-01
70  6.9000000000000E-01  1.0962309546960E+00  4.5995554231530E-01
71  7.0000000000000E-01  1.0695779813910E+00  4.8692045708490E-01
72  7.1000000000000E-01  1.0422239153504E+00  5.1362118027072E-01
73  7.2000000000000E-01  1.0142259689318E+00  5.4001061008366E-01
74  7.3000000000000E-01  9.8564054197842E-01  5.6604811313040E-01
75  7.4000000000000E-01  9.5652299591826E-01  5.9169982062259E-01
76  7.5000000000000E-01  9.2692744621187E-01  6.1693884200327E-01
77  7.6000000000000E-01  8.9690657484546E-01  6.4174539225500E-01
78  7.7000000000000E-01  8.6651146436394E-01  6.6610683001869E-01
79  7.8000000000000E-01  8.3579145472256E-01  6.9001760455715E-01
80  7.9000000000000E-01  8.0479402400732E-01  7.1347911053573E-01
81  8.0000000000000E-01  7.7356469383582E-01  7.3649945055450E-01
82  8.1000000000000E-01  7.4214696000500E-01  7.5909310634253E-01
83  8.2000000000000E-01  7.1058224870138E-01  7.8128052050587E-01
84  8.3000000000000E-01  6.7890989833630E-01  8.0308759169672E-01
85  8.4000000000000E-01  6.4716716681534E-01  8.2454508703364E-01
86  8.5000000000000E-01  6.1538926379981E-01  8.4568797653971E-01
87  8.6000000000000E-01  5.8360940727193E-01  8.6655469527156E-01
88  8.7000000000000E-01  5.5185890347505E-01  8.8718633967573E-01
89  8.8000000000000E-01  5.2016724906945E-01  9.0762580552332E-01
90  8.9000000000000E-01  4.8856225412360E-01  9.2791687553087E-01
91  9.0000000000000E-01  4.5707018435313E-01  9.4810326546910E-01
92  9.1000000000000E-01  4.2571592082531E-01  9.6822763818407E-01
93  9.2000000000000E-01  3.9452313516876E-01  9.8833059550347E-01
94  9.3000000000000E-01  3.6351447816542E-01  1.0084496584683E+00
95  9.4000000000000E-01  3.3271177945734E-01  1.0286182467152E+00
96  9.5000000000000E-01  3.0213625597380E-01  1.0488646681316E+00
97  9.6000000000000E-01  2.7180872657634E-01  1.0692111301183E+00
98  9.7000000000000E-01  2.4174983032916E-01  1.0896727839112E+00
99  9.8000000000000E-01  2.1198024573212E-01  1.1102568134496E+00
100  9.9000000000000E-01  1.8252090820084E-01  1.1309615802182E+00
101  1.0000000000000E+00  1.5339322304495E-01  1.1517758353453E+00
102  1.0100000000000E+00  1.2461927117906E-01  1.1726780100114E+00
103  1.0200000000000E+00  9.6222004802657E-02  1.1936355949053E+00
104  1.0300000000000E+00  6.8225430302848E-02  1.2146046190714E+00
105  1.0400000000000E+00  4.0654775668057E-02  1.2355292380188E+00
106  1.0500000000000E+00  1.3536639750233E-02  1.2563414404150E+00
107  1.0600000000000E+00 -1.3100879222502E-02  1.2769608820650E+00
108  1.0700000000000E+00 -3.9228078401829E-02  1.2972948551890E+00
109  1.0800000000000E+00 -6.4813570769983E-02  1.3172384002531E+00
110  1.0900000000000E+00 -8.9824233604188E-02  1.3366745667827E+00
111  1.1000000000000E+00 -1.1422518715209E-01  1.3554748287013E+00
112  1.1100000000000E+00 -1.3797980557950E-01  1.3734996587830E+00
113  1.1200000000000E+00 -1.6104976209946E-01  1.3905992657833E+00
114  1.1300000000000E+00 -1.8339511002323E-01  1.4066144967258E+00
115  1.1400000000000E+00 -2.0497440128611E-01  1.4213779056563E+00
116  1.1500000000000E+00 -2.2574484379325E-01  1.4347149889350E+00
117  1.1600000000000E+00 -2.4566249869872E-01  1.4464455858078E+00
118  1.1700000000000E+00 -2.6468251847394E-01  1.4563854415755E+00
119  1.1800000000000E+00 -2.8275942633247E-01  1.4643479291512E+00
120  1.1900000000000E+00 -2.9984743725607E-01  1.4701459231474E+00
121  1.2000000000000E+00 -3.1590082050476E-01  1.4735938188594E+00
122  1.2100000000000E+00 -3.3087430308578E-01  1.4745096865749E+00
123  1.2200000000000E+00 -3.4472351320030E-01  1.4727175495532E+00
124  1.2300000000000E+00 -3.5740546216895E-01  1.4680497717223E+00
125  1.2400000000000E+00 -3.6887906275983E-01  1.4603495386548E+00
126  1.2500000000000E+00 -3.7910568118965E-01  1.4494734126511E+00
127  1.2600000000000E+00 -3.8804971933469E-01  1.4352939397613E+00
128  1.2700000000000E+00 -3.9567922287074E-01  1.4177022833126E+00
129  1.2800000000000E+00 -4.0196651013818E-01  1.3966108548972E+00
130  1.2900000000000E+00 -4.0688881550128E-01  1.3719559098327E+00
131  1.3000000000000E+00 -4.1042893983031E-01  1.3437000697930E+00
132  1.3100000000000E+00 -4.1257589945786E-01  1.3118347305483E+00
133  1.3200000000000E+00 -4.1332556355118E-01  1.2763823075645E+00
134  1.3300000000000E+00 -4.1268126828344E-01  1.2373982665414E+00
135  1.3400000000000E+00 -4.1065439446584E-01  1.1949728797575E+00
136  1.3500000000000E+00 -4.0726489340599E-01  1.1492326423174E+00
137  1.3600000000000E+00 -4.0254174368093E-01  1.1003412750203E+00
138  1.3700000000000E+00 -3.9652331924298E-01  1.0485002325645E+00
139  1.3800000000000E+00 -3.8925764678801E-01  9.9394862707137E-01
140  1.3900000000000E+00 -3.8080252761035E-01  9.3696246746783E-01
141  1.4000000000000E+00 -3.7122549622877E-01  8.7785310503706E-01
142  1.4100000000000E+00 -3.6060358487134E-01  8.1696476436692E-01
143  1.4200000000000E+00 -3.4902285946442E-01  7.5467102701904E-01
144  1.4300000000000E+00 -3.3657768901667E-01  6.9137012228506E-01
145  1.4400000000000E+00 -3.2336970627283E-01  6.2747886556127E-01
146  1.4500000000000E+00 -3.0950641316528E-01  5.6342506991346E-01
147  1.4600000000000E+00 -2.9509937991315E-01  4.9963824031919E-01
148  1.4700000000000E+00 -2.8026198161143E-01  4.3653834286524E-01
149  1.4800000000000E+00 -2.6510660954100E-01  3.7452241587367E-01
150  1.4900000000000E+00 -2.4974129040078E-01  3.1394878110487E-01
151  1.5000000000000E+00 -2.3426569461827E-01  2.5511888347544E-01
152  1.5100000000000E+00 -2.1876645238682E-01  1.9825648860842E-01
153  1.5200000000000E+00 -2.0331906058372E-01  1.4352437354729E-01
154  1.5300000000000E+00 -1.8799528741119E-01  9.1069239165926E-02
155  1.5400000000000E+00 -1.7286453591076E-01  4.1030515988505E-02
156  1.5500000000000E+00 -1.5799336505041E-01 -6.4613992196882E-03
157  1.5600000000000E+00 -1.4344512516934E-01 -5.1286293398075E-02
158  1.5700000000000E+00 -1.2927959772738E-01 -9.3335307622555E-02
159  1.5800000000000E+00 -1.1555265766172E-01 -1.3251203059601E-01
160  1.5900000000000E+00 -1.0231596113459E-01 -1.6873350660607E-01
161  1.6000000000000E+00 -8.9616661736488E-02 -2.0193114721961E-01
162  1.6100000000000E+00 -7.7497158007386E-02 -2.3205153664992E-01
163  1.6200000000000E+00 -6.5994874860508E-02 -2.5905712173672E-01
164  1.6300000000000E+00 -5.5142081211995E-02 -2.8292677845220E-01
165  1.6400000000000E+00 -4.4965745850551E-02 -3.0365624773102E-01
166  1.6500000000000E+00 -3.5487433208759E-02 -3.2125843478440E-01
167  1.6600000000000E+00 -2.6723240359534E-02 -3.3576356722211E-01
168  1.6700000000000E+00 -1.8683776214466E-02 -3.4721920849097E-01
169  1.6800000000000E+00 -1.1374183509873E-02 -3.5569012452597E-01
170  1.6900000000000E+00 -4.7942037683025E-03 -3.6125800291417E-01
171  1.7000000000000E+00  1.0617149450041E-03 -3.6402102513014E-01
172  1.7100000000000E+00  6.2042680554845E-03 -3.6409329383141E-01
173  1.7200000000000E+00  1.0649103295563E-02 -3.6160411865012E-01
174  1.7300000000000E+00  1.4416589649249E-02 -3.5669716511349E-01
175  1.7400000000000E+00  1.7531548175485E-02 -3.4952947277841E-01
176  1.7500000000000E+00  2.0022946805075E-02 -3.4027034985332E-01
177  1.7600000000000E+00  2.1923561561581E-02 -3.2910015283813E-01
178  1.7700000000000E+00  2.3269606976103E-02 -3.1620896082874E-01
179  1.7800000000000E+00  2.4100338757115E-02 -3.0179515514659E-01
180  1.7900000000000E+00  2.4457632070605E-02 -2.8606391600485E-01
181  1.8000000000000E+00  2.4385539015165E-02 -2.6922564871505E-01
182  1.8100000000000E+00  2.3929829079570E-02 -2.5149435264349E-01
183  1.8200000000000E+00  2.3137516567929E-02 -2.3308594683975E-01
184  1.8300000000000E+00  2.2056379109826E-02 -2.1421656671728E-01
185  1.8400000000000E+00  2.0734471458552E-02 -1.9510084645471E-01
186  1.8500000000000E+00  1.9219638895774E-02 -1.7595020223317E-01
187  1.8600000000000E+00  1.7559034320676E-02 -1.5697113039561E-01
188  1.8700000000000E+00  1.5798646137963E-02 -1.3836354499695E-01
189  1.8800000000000E+00  1.3982819027626E-02 -1.2031910204818E-01
190  1.8900000000000E+00  1.2153860335459E-02 -1.0301978503400E-01
191  1.9000000000000E+00  1.0351528064088E-02 -8.6636173285749E-02
192  1.9100000000000E+00  8.6113791015459E-03 -7.1322309440657E-02
193  1.9200000000000E+00  6.9651590025524E-03 -5.7216569988437E-02
194  1.9300000000000E+00  5.4440953816451E-03 -4.4451245324226E-02
195  1.9400000000000E+00  4.0752777026151E-03 -3.3141858689883E-02
196  1.9500000000000E+00  2.8814496903298E-03 -2.3386380625066E-02
197  1.9600000000000E+00  1.8807674108646E-03 -1.5264377221541E-02
198  1.9700000000000E+00  1.0868954565587E-03 -8.8386762705671E-03
199  1.9800000000000E+00  5.0656815402924E-04 -4.1356340681039E-03
200  1.9900000000000E+00  1.4711292723795E-04 -1.2083210803325E-03
201  2.0000000000000E+00  8.0140222003410E-06 -6.6389850696541E-05
202  2.0100000000000E+00 -4.8590788568869E-06  4.0338741126618E-05
203  2.0200000000000E+00  2.2001899214787E-06 -1.8162291086007E-05
204  2.03 -0.  0.
205  2.04 -0. -0.
206  2.05 -0. -0.
207  2.06  0.  0.
208  2.07  0.  0.
209  2.08  0.  0.
210  2.09  0.  0.
211  2.10  0.  0.
212  2.11  0.  0.
213  2.12  0.  0.
214  2.13  0.  0.
215  2.14  0.  0.
216  2.15  0.  0.
217  2.16  0.  0.
218  2.17  0.  0.
219  2.18  0.  0.
220  2.19  0.  0.
221  2.20  0.  0.
222  2.21  0.  0.
223  2.22  0.  0.
224  2.23  0.  0.
225  2.24  0.  0.
226  2.25  0.  0.
227  2.26  0.  0.
228  2.27  0.  0.
229  2.28  0.  0.
230  2.29  0.  0.
231  2.30  0.  0.
232  2.31  0.  0.
233  2.32  0.  0.
234  2.33  0.  0.
235  2.34  0.  0.
236  2.35  0.  0.
237  2.36  0.  0.
238  2.37  0.  0.
239  2.38  0.  0.
240  2.39  0.  0.
241  2.40  0.  0.
242  2.41  0.  0.
243  2.42  0.  0.
244  2.43  0.  0.
245  2.44  0.  0.
246  2.45  0.  0.
247  2.46  0.  0.
248  2.47  0.  0.
249  2.48  0.  0.
250  2.49  0.  0.
251  2.50  0.  0.
252  2.51  0.  0.
253  2.52  0.  0.
254  2.53  0.  0.
255  2.54  0.  0.
256  2.55  0.  0.
257  2.56  0.  0.
258  2.57  0.  0.
259  2.58  0.  0.
260  2.59  0.  0.
261  2.60  0.  0.
262  2.61  0.  0.
263  2.62  0.  0.
264  2.63  0.  0.
265  2.64  0.  0.
266  2.65  0.  0.
267  2.66  0.  0.
268  2.67  0.  0.
269  2.68  0.  0.
270  2.69  0.  0.
271  2.70  0.  0.
272  2.71  0.  0.
273  2.72  0.  0.
274  2.73  0.  0.
275  2.74  0.  0.
276  2.75  0.  0.
277  2.76  0.  0.
278  2.77  0.  0.
279  2.78  0.  0.
280  2.79  0.  0.
281  2.80  0.  0.
282  2.81  0.  0.
283  2.82  0.  0.
284  2.83  0.  0.
285  2.84  0.  0.
286  2.85  0.  0.
287  2.86  0.  0.
288  2.87  0.  0.
289  2.88  0.  0.
290  2.89  0.  0.
291  2.90  0.  0.
292  2.91  0.  0.
293  2.92  0.  0.
294  2.93  0.  0.
295  2.94  0.  0.
296  2.95  0.  0.
297  2.96  0.  0.
298  2.97  0.  0.
299  2.98  0.  0.
300  2.99  0.  0.
301  3.00  0.  0.
302  3.01  0.  0.
303  3.02  0.  0.
304  3.03  0.  0.
305  3.04  0.  0.
306  3.05  0.  0.
307  3.06  0.  0.
308  3.07  0.  0.
309  3.08  0.  0.
310  3.09  0.  0.
311  3.10  0.  0.
312  3.11  0.  0.
313  3.12  0.  0.
314  3.13  0.  0.
315  3.14  0.  0.
316  3.15  0.  0.
317  3.16  0.  0.
318  3.17  0.  0.
319  3.18  0.  0.
320  3.19  0.  0.
321  3.20  0.  0.
322  3.21  0.  0.
323  3.22  0.  0.
324  3.23  0.  0.
325  3.24  0.  0.
326  3.25  0.  0.
327  3.26  0.  0.
328  3.27  0.  0.
329  3.28  0.  0.
330  3.29  0.  0.
331  3.30  0.  0.
332  3.31  0.  0.
333  3.32  0.  0.
334  3.33  0.  0.
335  3.34  0.  0.
336  3.35  0.  0.
337  3.36  0.  0.
338  3.37  0.  0.
339  3.38  0.  0.
340  3.39  0.  0.
341  3.40  0.  0.
342  3.41  0.  0.
343  3.42  0.  0.
344  3.43  0.  0.
345  3.44  0.  0.
346  3.45  0.  0.
347  3.46  0.  0.
348  3.47  0.  0.
349  3.48  0.  0.
350  3.49  0.  0.
351  3.50  0.  0.
352  3.51  0.  0.
353  3.52  0.  0.
354  3.53  0.  0.
355  3.54  0.  0.
356  3.55  0.  0.
357  3.56  0.  0.
358  3.57  0.  0.
359  3.58  0.  0.
360  3.59  0.  0.
361  3.60  0.  0.
362  3.61  0.  0.
363  3.62  0.  0.
364  3.63  0.  0.
365  3.64  0.  0.
366  3.65  0.  0.
367  3.66  0.  0.
368  3.67  0.  0.
369  3.68  0.  0.
370  3.69  0.  0.
371  3.70  0.  0.
372  3.71  0.  0.
373  3.72  0.  0.
374  3.73  0.  0.
375  3.74  0.  0.
376  3.75  0.  0.
377  3.76  0.  0.
378  3.77  0.  0.
379  3.78  0.  0.
380  3.79  0.  0.
381  3.80  0.  0.
382  3.81  0.  0.
383  3.82  0.  0.
384  3.83  0.  0.
385  3.84  0.  0.
386  3.85  0.  0.
387  3.86  0.  0.
388  3.87  0.  0.
389  3.88  0.  0.
390  3.89  0.  0.
391  3.90  0.  0.
392  3.91  0.  0.
393  3.92  0.  0.
394  3.93  0.  0.
395  3.94  0.  0.
396  3.95  0.  0.
397  3.96  0.  0.
398  3.97  0.  0.
399  3.98  0.  0.
400  3.99  0.  0.
401  4.00  0.  0.
402  4.01  0.  0.
403  4.02  0.  0.
404  4.03  0.  0.
405  4.04  0.  0.
406  4.05  0.  0.
407  4.06  0.  0.
408  4.07  0.  0.
409  4.08  0.  0.
410  4.09  0.  0.
411  4.10  0.  0.
412  4.11  0.  0.
413  4.12  0.  0.
414  4.13  0.  0.
415  4.14  0.  0.
416  4.15  0.  0.
417  4.16  0.  0.
418  4.17  0.  0.
419  4.18  0.  0.
420  4.19  0.  0.
421  4.20  0.  0.
422  4.21  0.  0.
423  4.22  0.  0.
424  4.23  0.  0.
425  4.24  0.  0.
426  4.25  0.  0.
427  4.26  0.  0.
428  4.27  0.  0.
429  4.28  0.  0.
430  4.29  0.  0.
431  4.30  0.  0.
432  4.31  0.  0.
433  4.32  0.  0.
434  4.33  0.  0.
435  4.34  0.  0.
436  4.35  0.  0.
437  4.36  0.  0.
438  4.37  0.  0.
439  4.38  0.  0.
440  4.39  0.  0.
441  4.40  0.  0.
442  4.41  0.  0.
443  4.42  0.  0.
444  4.43  0.  0.
445  4.44  0.  0.
446  4.45  0.  0.
447  4.46  0.  0.
448  4.47  0.  0.
449  4.48  0.  0.
450  4.49  0.  0.
451  4.50  0.  0.
452  4.51  0.  0.
453  4.52  0.  0.
454  4.53  0.  0.
455  4.54  0.  0.
456  4.55  0.  0.
457  4.56  0.  0.
458  4.57  0.  0.
459  4.58  0.  0.
460  4.59  0.  0.
461  4.60  0.  0.
462  4.61  0.  0.
463  4.62  0.  0.
464  4.63  0.  0.
465  4.64  0.  0.
466  4.65  0.  0.
467  4.66  0.  0.
468  4.67  0.  0.
469  4.68  0.  0.
470  4.69  0.  0.
471  4.70  0.  0.
472  4.71  0.  0.
473  4.72  0.  0.
474  4.73  0.  0.
475  4.74  0.  0.
476  4.75  0.  0.
477  4.76  0.  0.
478  4.77  0.  0.
479  4.78  0.  0.
480  4.79  0.  0.
481  4.80  0.  0.
482  4.81  0.  0.
483  4.82  0.  0.
484  4.83  0.  0.
485  4.84  0.  0.
486  4.85  0.  0.
487  4.86  0.  0.
488  4.87  0.  0.
489  4.88  0.  0.
490  4.89  0.  0.
491  4.90  0.  0.
492  4.91  0.  0.
493  4.92  0.  0.
494  4.93  0.  0.
495  4.94  0.  0.
496  4.95  0.  0.
497  4.96  0.  0.
498  4.97  0.  0.
499  4.98  0.  0.
500  4.99  0.  0.
501  5.00  0.  0.
502  5.01  0.  0.
503  5.02  0.  0.
504  5.03  0.  0.
505  5.04  0.  0.
506  5.05  0.  0.
507  5.06  0.  0.
508  5.07  0.  0.
509  5.08  0.  0.
510  5.09  0.  0.
511  5.10  0.  0.
512  5.11  0.  0.
513  5.12  0.  0.
514  5.13  0.  0.
515  5.14  0.  0.
516  5.15  0.  0.
517  5.16  0.  0.
518  5.17  0.  0.
519  5.18  0.  0.
520  5.19  0.  0.
521  5.20  0.  0.
522  5.21  0.  0.
523  5.22  0.  0.
524  5.23  0.  0.
525  5.24  0.  0.
526  5.25  0.  0.
527  5.26  0.  0.
528  5.27  0.  0.
529  5.28  0.  0.
530  5.29  0.  0.
531  5.30  0.  0.
532  5.31  0.  0.
533  5.32  0.  0.
534  5.33  0.  0.
535  5.34  0.  0.
536  5.35  0.  0.
537  5.36  0.  0.
538  5.37  0.  0.
539  5.38  0.  0.
540  5.39  0.  0.
541  5.40  0.  0.
542  5.41  0.  0.
543  5.42  0.  0.
544  5.43  0.  0.
545  5.44  0.  0.
546  5.45  0.  0.
547  5.46  0.  0.
548  5.47  0.  0.
549  5.48  0.  0.
550  5.49  0.  0.
551  5.50  0.  0.
552  5.51  0.  0.
553  5.52  0.  0.
554  5.53  0.  0.
555  5.54  0.  0.
556  5.55  0.  0.
557  5.56  0.  0.
558  5.57  0.  0.
559  5.58  0.  0.
560  5.59  0.  0.
561  5.60  0.  0.
562  5.61  0.  0.
563  5.62  0.  0.
564  5.63  0.  0.
565  5.64  0.  0.
566  5.65  0.  0.
567  5.66  0.  0.
568  5.67  0.  0.
569  5.68  0.  0.
570  5.69  0.  0.
571  5.70  0.  0.
572  5.71  0.  0.
573  5.72  0.  0.
574  5.73  0.  0.
575  5.74  0.  0.
576  5.75  0.  0.
577  5.76  0.  0.
578  5.77  0.  0.
579  5.78  0.  0.
580  5.79  0.  0.
581  5.80  0.  0.
582  5.81  0.  0.
583  5.82  0.  0.
584  5.83  0.  0.
585  5.84  0.  0.
586  5.85  0.  0.
587  5.86  0.  0.
588  5.87  0.  0.
589  5.88  0.  0.
590  5.89  0.  0.
591  5.90  0.  0.
592  5.91  0.  0.
593  5.92  0.  0.
594  5.93  0.  0.
595  5.94  0.  0.
596  5.95  0.  0.
597  5.96  0.  0.
598  5.97  0.  0.
599  5.98  0.  0.
600  5.99  0.  0.
1                         5.6914490371005E+00  3.6905236959209E-01
1  0.0000000000000E+00  3.3426019035998E-09 -2.1372216357785E-08
2  1.0000000000000E-02  1.2997970450317E-03 -2.4816629485963E-03
3  2.0000000000000E-02  5.1905586757919E-03 -9.8836474417551E-03
4  3.0000000000000E-02  1.1646511571781E-02 -2.2077668489519E-02
5  4.0000000000000E-02  2.0625082239227E-02 -3.8852332356221E-02
6  5.0000000000000E-02  3.2067463333873E-02 -5.9916715545534E-02
7  6.0000000000000E-02  4.5899393157919E-02 -8.4905290351345E-02
8  7.0000000000000E-02  6.2032135255137E-02 -1.1338411366848E-01
9  8.0000000000000E-02  8.0363641685568E-02 -1.4485817438507E-01
10  9.0000000000000E-02  1.0077988050391E-01 -1.7877977507008E-01
11  1.0000000000000E-01  1.2315630524716E-01 -2.1455780615767E-01
12  1.1000000000000E-01  1.4735944190439E-01 -2.5156775570979E-01
13  1.2000000000000E-01  1.7324856693542E-01 -2.8916228536367E-01
14  1.3000000000000E-01  2.0067744845843E-01 -3.2668219345509E-01
15  1.4000000000000E-01  2.2949612176480E-01 -3.6346757971046E-01
16  1.5000000000000E-01  2.5955266985881E-01 -3.9886902243623E-01
17  1.6000000000000E-01  2.9069497976881E-01 -4.3225857885865E-01
18  1.7000000000000E-01  3.2277244593348E-01 -4.6304042218844E-01
19  1.8000000000000E-01  3.5563759302259E-01 -4.9066093505243E-01
20  1.9000000000000E-01  3.8914759208743E-01 -5.1461808804807E-01
21  2.0000000000000E-01  4.2316564592497E-01 -5.3446994418219E-01
22  2.1000000000000E-01  4.5756222194677E-01 -5.4984214465187E-01
23  2.2000000000000E-01  4.9221611362701E-01 -5.6043424856433E-01
24  2.3000000000000E-01  5.2701531471460E-01 -5.6602481848783E-01
25  2.4000000000000E-01  5.6185769377751E-01 -5.6647516484818E-01
26  2.5000000000000E-01  5.9665146024456E-01 -5.6173168478490E-01
27  2.6000000000000E-01  6.3131541685721E-01 -5.5182675477087E-01
28  2.7000000000000E-01  6.6577899727559E-01 -5.3687816068488E-01
29  2.8000000000000E-01  6.9998209143271E-01 -5.1708707369352E-01
30  2.9000000000000E-01  7.3387466502964E-01 -4.9273460483344E-01
31  3.0000000000000E-01  7.6741618324645E-01 -4.6417699517179E-01
32  3.1000000000000E-01  8.0057485224362E-01 -4.3183952145770E-01
33  3.2000000000000E-01  8.3332669528544E-01 -3.9620921887305E-01
34  3.3000000000000E-01  8.6565448327185E-01 -3.5782654247856E-01
35  3.4000000000000E-01  8.9754654206765E-01 -3.1727610689597E-01
36  3.5000000000000E-01  9.2899546122065E-01 -2.7517665936541E-01
37  3.6000000000000E-01  9.5999673042463E-01 -2.3217045430498E-01
38  3.7000000000000E-01  9.9054733137754E-01 -1.8891220765988E-01
39  3.8000000000000E-01  1.0206443134866E+00 -1.4605781648801E-01
40  3.9000000000000E-01  1.0502833821659E+00 -1.0425303326921E-01
41  4.0000000000000E-01  1.0794575282526E+00 -6.4122285276882E-02
42  4.1000000000000E-01  1.1081557263376E+00 -2.6257827002030E-02
43  4.2000000000000E-01  1.1363617285824E+00  8.7905918910827E-03
44  4.3000000000000E-01  1.1640529788862E+00  4.0525369174389E-02
45  4.4000000000000E-01  1.1911996701226E+00  6.8509840825357E-02
46  4.5000000000000E-01  1.2177639646016E+00  9.2376071772801E-02
47  4.6000000000000E-01  1.2436993949928E+00  1.1183151514170E-01
48  4.7000000000000E-01  1.2689504597060E+00  1.2666442742460E-01
49  4.8000000000000E-01  1.2934524232332E+00  1.3674794779166E-01
50  4.9000000000000E-01  1.3171313282700E+00  1.4204277206151E-01
51  5.0000000000000E-01  1.3399042226108E+00  1.4259837531318E-01
52  5.1000000000000E-01  1.3616795999379E+00  1.3855276132865E-01
53  5.2000000000000E-01  1.3823580497440E+00  1.3013074160434E-01
54  5.3000000000000E-01  1.4018331078280E+00  1.1764077114520E-01
55  5.4000000000000E-01  1.4199922951477E+00  1.0147039224124E-01
56  5.5000000000000E-01  1.4367183293528E+00  8.2080360519956E-02
57  5.6000000000000E-01  1.4518904901419E+00  5.9997549379884E-02
58  5.7000000000000E-01  1.4653861167214E+00  3.5806749073500E-02
59  5.8000000000000E-01  1.4770822131570E+00  1.0141494883789E-02
60  5.9000000000000E-01  1.4868571353399E+00 -1.6325925273925E-02
61  6.0000000000000E-01  1.4945923316773E+00 -4.2895120161842E-02
62  6.1000000000000E-01  1.5001741084872E+00 -6.8848727218189E-02
63  6.2000000000000E-01  1.5034953904524E+00 -9.3463845408275E-02
64  6.3000000000000E-01  1.5044574463831E+00 -1.1602358254458E-01
65  6.4000000000000E-01  1.5029715509442E+00 -1.3582852928025E-01
66  6.5000000000000E-01  1.4989605539246E+00 -1.5220797371668E-01
67  6.6000000000000E-01  1.4923603300412E+00 -1.6453067541240E-01
68  6.7000000000000E-01  1.4831210841551E+00 -1.7221502544373E-01
69  6.8000000000000E-01  1.4712084890966E+00 -1.7473842990199E-01
70  6.9000000000000E-01  1.4566046360142E+00 -1.7164576762877E-01
71  7.0000000000000E-01  1.4393087802262E+00 -1.6255678884288E-01
72  7.1000000000000E-01  1.4193378689078E+00 -1.4717233933252E-01
73  7.2000000000000E-01  1.3967268405425E+00 -1.2527931474352E-01
74  7.3000000000000E-01  1.3715286898230E+00 -9.6754270857957E-02
75  7.4000000000000E-01  1.3438142955568E+00 -6.1565638243734E-02
76  7.5000000000000E-01  1.3136720130317E+00 -1.9774512883226E-02
77  7.6000000000000E-01  1.2812070361679E+00  2.8465982041308E-02
78  7.7000000000000E-01  1.2465405385522E+00  8.2912744524705E-02
79  7.8000000000000E-01  1.2098086060575E+00  1.4323611055499E-01
80  7.9000000000000E-01  1.1711609771232E+00  2.0902457545779E-01
81  8.0000000000000E-01  1.1307596098649E+00  2.7979073489511E-01
82  8.1000000000000E-01  1.0887770979312E+00  3.5497834125922E-01
83  8.2000000000000E-01  1.0453949593883E+00  4.3397035371197E-01
84  8.3000000000000E-01  1.0008018248522E+00  5.1609784480910E-01
85  8.4000000000000E-01  9.5519155256667E-01  6.0064961376724E-01
86  8.5000000000000E-01  9.0876129912694E-01  6.8688234617521E-01
87  8.6000000000000E-01  8.6170957504719E-01  7.7403115247794E-01
88  8.7000000000000E-01  8.1423431437564E-01  8.6132031297621E-01
89  8.8000000000000E-01  7.6653098706019E-01  9.4797405544039E-01
90  8.9000000000000E-01  7.1879078178513E-01  1.0332271927368E+00
91  9.0000000000000E-01  6.7119888554915E-01  1.1163354520602E+00
92  9.1000000000000E-01  6.2393288436900E-01  1.1965853343579E+00
93  9.2000000000000E-01  5.7716130720651E-01  1.2733033521765E+00
94  9.3000000000000E-01  5.3104233257325E-01  1.3458645062650E+00
95  9.4000000000000E-01  4.8572267431695E-01  1.4136998756068E+00
96  9.5000000000000E-01  4.4133665988975E-01  1.4763032118473E+00
97  9.6000000000000E-01  3.9800551100065E-01  1.5332364470505E+00
98  9.7000000000000E-01  3.5583683302254E-01  1.5841340430233E+00
99  9.8000000000000E-01  3.1492431592267E-01  1.6287061307505E+00
100  9.9000000000000E-01  2.7534764587654E-01  1.6667404094349E+00
101  1.0000000000000E+00  2.3717262317264E-01  1.6981027958639E+00
102  1.0100000000000E+00  2.0045147857862E-01  1.7227368359861E+00
103  1.0200000000000E+00  1.6522337707867E-01  1.7406619112980E+00
104  1.0300000000000E+00  1.3151509486097E-01  1.7519702925769E+00
105  1.0400000000000E+00  9.9341852677584E-02  1.7568231123555E+00
106  1.0500000000000E+00  6.8708286269214E-02  1.7554453449704E+00
107  1.0600000000000E+00  3.9609532473213E-02  1.7481198987861E+00
108  1.0700000000000E+00  1.2032407947765E-02  1.7351809390759E+00
109  1.0800000000000E+00 -1.4043343825809E-02  1.7170065717771E+00
110  1.0900000000000E+00 -3.8643762448080E-02  1.6940110278277E+00
111  1.1000000000000E+00 -6.1799363009576E-02  1.6666364948621E+00
112  1.1100000000000E+00 -8.3543836575935E-02  1.6353447476404E+00
113  1.1200000000000E+00 -1.0391278387279E-01  1.6006087306571E+00
114  1.1300000000000E+00 -1.2294250643423E-01  1.5629042459274E+00
115  1.1400000000000E+00 -1.4066887822071E-01  1.5227018959995E+00
116  1.1500000000000E+00 -1.5712631910058E-01  1.4804594269118E+00
117  1.1600000000000E+00 -1.7234688963057E-01  1.4366146081286E+00
118  1.1700000000000E+00 -1.8635952433058E-01  1.3915787767013E+00
119  1.1800000000000E+00 -1.9918941813308E-01  1.3457311610298E+00
120  1.1900000000000E+00 -2.1085757796896E-01  1.2994140859733E+00
121  1.2000000000000E+00 -2.2138054855013E-01  1.2529291457545E+00
122  1.2100000000000E+00 -2.3077031837143E-01  1.2065344143622E+00
123  1.2200000000000E+00 -2.3903440883987E-01  1.1604427452798E+00
124  1.2300000000000E+00 -2.4617614624451E-01  1.1148211933259E+00
125  1.2400000000000E+00 -2.5219511309780E-01  1.0697915717117E+00
126  1.2500000000000E+00 -2.5708777218780E-01  1.0254321369777E+00
127  1.2600000000000E+00 -2.6084825353549E-01  9.8178037358477E-01
128  1.2700000000000E+00 -2.6346929138174E-01  9.3883682883974E-01
129  1.2800000000000E+00 -2.6494329531168E-01  8.9656992736213E-01
130  1.2900000000000E+00 -2.6526353670829E-01  8.5492167282828E-01
131  1.3000000000000E+00 -2.6442542889998E-01  8.1381412322775E-01
132  1.3100000000000E+00 -2.6242787660134E-01  7.7315650418721E-01
133  1.3200000000000E+00 -2.5927466755973E-01  7.3285280328711E-01
134  1.3300000000000E+00 -2.5497587667466E-01  6.9280966653314E-01