Gd    ONCVPSP-4.0.1  r_core=   2.00348   1.60569   1.90986   1.60569
64.0000     18.0000      250626    zatom,zion,pspd
8      11   3     4   600     0    pspcod,pspxc,lmax,lloc,mmax,r2well
5.99000000 13.00000000  0.00000000    rchrg fchrg qchrg
2     2     2     2     0    nproj
1     1           extension_switch
0                         6.6462338805232E+00  5.1622477758179E-01
1  0.0000000000000E+00  9.7860330949828E-11 -4.1475486933784E-10
2  1.0000000000000E-02  4.2072845860449E-02 -2.0945026020914E-03
3  2.0000000000000E-02  8.4122883249822E-02 -4.2394670682936E-03
4  3.0000000000000E-02  1.2612710805711E-01 -6.4844984214129E-03
5  4.0000000000000E-02  1.6806212736879E-01 -8.8774979556716E-03
6  5.0000000000000E-02  2.0990397123584E-01 -1.1463836151112E-02
7  6.0000000000000E-02  2.5162791177279E-01 -1.4285555025690E-02
8  7.0000000000000E-02  2.9320829191692E-01 -1.7380609246269E-02
9  8.0000000000000E-02  3.3461836607782E-01 -2.0782154905000E-02
10  9.0000000000000E-02  3.7583015478728E-01 -2.4517894357020E-02
11  1.0000000000000E-01  4.1681431531693E-01 -2.8609484914430E-02
12  1.1000000000000E-01  4.5754003006955E-01 -3.3072018505957E-02
13  1.2000000000000E-01  4.9797491436860E-01 -3.7913578648676E-02
14  1.3000000000000E-01  5.3808494507365E-01 -4.3134880245629E-02
15  1.4000000000000E-01  5.7783441123660E-01 -4.8728996829130E-02
16  1.5000000000000E-01  6.1718588778871E-01 -5.4681178923662E-02
17  1.6000000000000E-01  6.5610023301267E-01 -6.0968766214150E-02
18  1.7000000000000E-01  6.9453661030994E-01 -6.7561195184678E-02
19  1.8000000000000E-01  7.3245253452384E-01 -7.4420102850812E-02
20  1.9000000000000E-01  7.6980394282537E-01 -8.1499526155594E-02
21  2.0000000000000E-01  8.0654528991468E-01 -8.8746195546476E-02
22  2.1000000000000E-01  8.4262966703850E-01 -9.6099920208318E-02
23  2.2000000000000E-01  8.7800894407511E-01 -1.0349406140818E-01
24  2.3000000000000E-01  9.1263393369651E-01 -1.1085608941987E-01
25  2.4000000000000E-01  9.4645457638450E-01 -1.1810821855266E-01
26  2.5000000000000E-01  9.7942014485542E-01 -1.2516811391773E-01
27  2.6000000000000E-01  1.0114794662403E+00 -1.3194966273798E-01
28  2.7000000000000E-01  1.0425811601743E+00 -1.3836380225093E-01
29  2.8000000000000E-01  1.0726738907746E+00 -1.4431939557850E-01
30  2.9000000000000E-01  1.1017066303304E+00 -1.4972414634954E-01
31  3.0000000000000E-01  1.1296289323925E+00 -1.5448554236729E-01
32  3.1000000000000E-01  1.1563912118409E+00 -1.5851181822006E-01
33  3.2000000000000E-01  1.1819450294162E+00 -1.6171292644572E-01
34  3.3000000000000E-01  1.2062433781395E+00 -1.6400150668012E-01
35  3.4000000000000E-01  1.2292409690052E+00 -1.6529384215133E-01
36  3.5000000000000E-01  1.2508945133172E+00 -1.6551079292628E-01
37  3.6000000000000E-01  1.2711629990544E+00 -1.6457869547363E-01
38  3.7000000000000E-01  1.2900079586866E+00 -1.6243021837724E-01
39  3.8000000000000E-01  1.3073937259286E+00 -1.5900516441476E-01
40  3.9000000000000E-01  1.3232876790091E+00 -1.5425120970401E-01
41  4.0000000000000E-01  1.3376604681433E+00 -1.4812457121053E-01
42  4.1000000000000E-01  1.3504862250373E+00 -1.4059059459858E-01
43  4.2000000000000E-01  1.3617427524082E+00 -1.3162425518727E-01
44  4.3000000000000E-01  1.3714116916849E+00 -1.2121056563747E-01
45  4.4000000000000E-01  1.3794786672520E+00 -1.0934488493425E-01
46  4.5000000000000E-01  1.3859334058120E+00 -9.6033124234383E-02
47  4.6000000000000E-01  1.3907698296723E+00 -8.1291846210757E-02
48  4.7000000000000E-01  1.3939861230033E+00 -6.5148255631411E-02
49  4.8000000000000E-01  1.3955847703662E+00 -4.7640080053187E-02
50  4.9000000000000E-01  1.3955725670662E+00 -2.8815340672803E-02
51  5.0000000000000E-01  1.3939606011536E+00 -8.7320145529988E-03
52  5.1000000000000E-01  1.3907642071573E+00  1.2542409386713E-02
53  5.2000000000000E-01  1.3860028919038E+00  3.4931477066781E-02
54  5.3000000000000E-01  1.3797002330349E+00  5.8350413952359E-02
55  5.4000000000000E-01  1.3718837510949E+00  8.2706861994009E-02
56  5.5000000000000E-01  1.3625847563045E+00  1.0790170198961E-01
57  5.6000000000000E-01  1.3518381713777E+00  1.3382995357340E-01
58  5.7000000000000E-01  1.3396823319584E+00  1.6038174413014E-01
59  5.8000000000000E-01  1.3261587664638E+00  1.8744333710933E-01
60  5.9000000000000E-01  1.3113119573091E+00  2.1489820948282E-01
61  6.0000000000000E-01  1.2951890856598E+00  2.4262816745953E-01
62  6.1000000000000E-01  1.2778397620043E+00  2.7051448905000E-01
63  6.2000000000000E-01  1.2593157449658E+00  2.9843908166740E-01
64  6.3000000000000E-01  1.2396706508724E+00  3.2628564266724E-01
65  6.4000000000000E-01  1.2189596566791E+00  3.5394081056630E-01
66  6.5000000000000E-01  1.1972391988864E+00  3.8129529464915E-01
67  6.6000000000000E-01  1.1745666711174E+00  4.0824497076523E-01
68  6.7000000000000E-01  1.1510001230168E+00  4.3469193134418E-01
69  6.8000000000000E-01  1.1265979630979E+00  4.6054547800881E-01
70  6.9000000000000E-01  1.1014186681093E+00  4.8572304564098E-01
71  7.0000000000000E-01  1.0755205014067E+00  5.1015104735258E-01
72  7.1000000000000E-01  1.0489612427076E+00  5.3376563052594E-01
73  7.2000000000000E-01  1.0217979314754E+00  5.5651333490800E-01
74  7.3000000000000E-01  9.9408662602125E-01  5.7835164466320E-01
75  7.4000000000000E-01  9.6588218024206E-01  5.9924942730204E-01
76  7.5000000000000E-01  9.3723803971658E-01  6.1918725349557E-01
77  7.6000000000000E-01  9.0820605867264E-01  6.3815759294896E-01
78  7.7000000000000E-01  8.7883633911616E-01  6.5616488272917E-01
79  7.8000000000000E-01  8.4917709317683E-01  6.7322546570850E-01
80  7.9000000000000E-01  8.1927452948211E-01  6.8936739808594E-01
81  8.0000000000000E-01  7.8917276412138E-01  7.0463012626635E-01
82  8.1000000000000E-01  7.5891375650859E-01  7.1906403470226E-01
83  8.2000000000000E-01  7.2853727019838E-01  7.3272986761776E-01
84  8.3000000000000E-01  6.9808085845832E-01  7.4569802882815E-01
85  8.4000000000000E-01  6.6757987415349E-01  7.5804776512539E-01
86  8.5000000000000E-01  6.3706750325967E-01  7.6986623990920E-01
87  8.6000000000000E-01  6.0657482109213E-01  7.8124750489039E-01
88  8.7000000000000E-01  5.7613087011959E-01  7.9229137876766E-01
89  8.8000000000000E-01  5.4576275802995E-01  8.0310224276965E-01
90  8.9000000000000E-01  5.1549577452834E-01  8.1378776385043E-01
91  9.0000000000000E-01  4.8535352517944E-01  8.2445755712107E-01
92  9.1000000000000E-01  4.5535808045785E-01  8.3522179978403E-01
93  9.2000000000000E-01  4.2553013804224E-01  8.4618980940477E-01
94  9.3000000000000E-01  3.9588919628370E-01  8.5746859980215E-01
95  9.4000000000000E-01  3.6645373669456E-01  8.6916142816240E-01
96  9.5000000000000E-01  3.3724141324401E-01  8.8136634717721E-01
97  9.6000000000000E-01  3.0826924620838E-01  8.9417477607822E-01
98  9.7000000000000E-01  2.7955381830856E-01  9.0767010438474E-01
99  9.8000000000000E-01  2.5111147087355E-01  9.2192634200537E-01
100  9.9000000000000E-01  2.2295849779604E-01  9.3700682903919E-01
101  1.0000000000000E+00  1.9511133509319E-01  9.5296301821448E-01
102  1.0100000000000E+00  1.6758674395109E-01  9.6983334238977E-01
103  1.0200000000000E+00  1.4040198521335E-01  9.8764217893065E-01
104  1.0300000000000E+00  1.1357498337136E-01  1.0063989220751E+00
105  1.0400000000000E+00  8.7124478223401E-02  1.0260971736208E+00
106  1.0500000000000E+00  6.1070162490612E-02  1.0467140614172E+00
107  1.0600000000000E+00  3.5432803806668E-02  1.0682096942414E+00
108  1.0700000000000E+00  1.0234349633859E-02  1.0905267606780E+00
109  1.0800000000000E+00 -1.4501986202499E-02  1.1135902786371E+00
110  1.0900000000000E+00 -3.8751656527537E-02  1.1373075011255E+00
111  1.1000000000000E+00 -6.2488734403166E-02  1.1615679828605E+00
112  1.1100000000000E+00 -8.5685888172769E-02  1.1862438112772E+00
113  1.1200000000000E+00 -1.0831437871401E-01  1.2111900044527E+00
114  1.1300000000000E+00 -1.3034407951908E-01  1.2362450774549E+00
115  1.1400000000000E+00 -1.5174352009759E-01  1.2612317776219E+00
116  1.1500000000000E+00 -1.7247995308014E-01  1.2859579883110E+00
117  1.1600000000000E+00 -1.9251944529157E-01  1.3102177997060E+00
118  1.1700000000000E+00 -2.1182699296102E-01  1.3337927443614E+00
119  1.1800000000000E+00 -2.3036666114179E-01  1.3564531942786E+00
120  1.1900000000000E+00 -2.4810174732594E-01  1.3779599154485E+00
121  1.2000000000000E+00 -2.6499496915612E-01  1.3980657749693E+00
122  1.2100000000000E+00 -2.8100867605731E-01  1.4165175950263E+00
123  1.2200000000000E+00 -2.9610508453303E-01  1.4330581472178E+00
124  1.2300000000000E+00 -3.1024653678977E-01  1.4474282798967E+00
125  1.2400000000000E+00 -3.2339578226773E-01  1.4593691703683E+00
126  1.2500000000000E+00 -3.3551628156133E-01  1.4686246929273E+00
127  1.2600000000000E+00 -3.4657253210364E-01  1.4749438927960E+00
128  1.2700000000000E+00 -3.5653041486240E-01  1.4780835550434E+00
129  1.2800000000000E+00 -3.6535756114455E-01  1.4778108564846E+00
130  1.2900000000000E+00 -3.7302373842507E-01  1.4739060873508E+00
131  1.3000000000000E+00 -3.7950125390028E-01  1.4661654281775E+00
132  1.3100000000000E+00 -3.8476537420759E-01  1.4544037658322E+00
133  1.3200000000000E+00 -3.8879475944519E-01  1.4384575308674E+00
134  1.3300000000000E+00 -3.9157190926104E-01  1.4181875364186E+00
135  1.3400000000000E+00 -3.9308361835411E-01  1.3934817966309E+00
136  1.3500000000000E+00 -3.9332143822872E-01  1.3642583000418E+00
137  1.3600000000000E+00 -3.9228214146506E-01  1.3304677104668E+00
138  1.3700000000000E+00 -3.8996818409962E-01  1.2920959646585E+00
139  1.3800000000000E+00 -3.8638816094962E-01  1.2491667323430E+00
140  1.3900000000000E+00 -3.8155724784166E-01  1.2017437000726E+00
141  1.4000000000000E+00 -3.7549762372667E-01  1.1499326357165E+00
142  1.4100000000000E+00 -3.6823886455623E-01  1.0938831852235E+00
143  1.4200000000000E+00 -3.5981829956069E-01  1.0337903475496E+00
144  1.4300000000000E+00 -3.5028131919317E-01  9.6989556726566E-01
145  1.4400000000000E+00 -3.3968162247353E-01  9.0248737730733E-01
146  1.4500000000000E+00 -3.2808138978233E-01  8.3190151659130E-01
147  1.4600000000000E+00 -3.1555136529815E-01  7.5852043870442E-01
148  1.4700000000000E+00 -3.0217083123169E-01  6.8277211854011E-01
149  1.4800000000000E+00 -2.8802745379104E-01  6.0512805361243E-01
150  1.4900000000000E+00 -2.7321697837801E-01  5.2610034565972E-01
151  1.5000000000000E+00 -2.5784274887733E-01  4.4623773610967E-01
152  1.5100000000000E+00 -2.4201502303853E-01  3.6612045591247E-01
153  1.5200000000000E+00 -2.2585005284864E-01  2.8635373609115E-01
154  1.5300000000000E+00 -2.0946889544517E-01  2.0755981006475E-01
155  1.5400000000000E+00 -1.9299591650790E-01  1.3036822229851E-01
156  1.5500000000000E+00 -1.7655694417990E-01  5.5404240053043E-02
157  1.5600000000000E+00 -1.6027702738619E-01 -1.6724854138434E-02
158  1.5700000000000E+00 -1.4427774794713E-01 -8.5445832128221E-02
159  1.5800000000000E+00 -1.2867402948720E-01 -1.5023822719531E-01
160  1.5900000000000E+00 -1.1357038087437E-01 -2.1065597651547E-01
161  1.6000000000000E+00 -9.9056615679455E-02 -2.6635162125374E-01
162  1.6100000000000E+00 -8.5202384283007E-02 -3.1710724464796E-01
163  1.6200000000000E+00 -7.2056497842788E-02 -3.6283309577658E-01
164  1.6300000000000E+00 -5.9656270466289E-02 -4.0350214868873E-01
165  1.6400000000000E+00 -4.8033171659591E-02 -4.3911186442836E-01
166  1.6500000000000E+00 -3.7212393760405E-02 -4.6968669809379E-01
167  1.6600000000000E+00 -2.7212859901284E-02 -4.9527775333262E-01
168  1.6700000000000E+00 -1.8047192081911E-02 -5.1596281474846E-01
169  1.6800000000000E+00 -9.7217270344763E-03 -5.3184616405619E-01
170  1.6900000000000E+00 -2.2365836733849E-03 -5.4305815730645E-01
171  1.7000000000000E+00  4.4142205733209E-03 -5.4975458052120E-01
172  1.7100000000000E+00  1.0242604666103E-02 -5.5211578345794E-01
173  1.7200000000000E+00  1.5266211268823E-02 -5.5034559710689E-01
174  1.7300000000000E+00  1.9508148250889E-02 -5.4467004352877E-01
175  1.7400000000000E+00  2.2996685947268E-02 -5.3533584472119E-01
176  1.7500000000000E+00  2.5764912717722E-02 -5.2260874256231E-01
177  1.7600000000000E+00  2.7850351469535E-02 -5.0677164203706E-01
178  1.7700000000000E+00  2.9294540276299E-02 -4.8812259226762E-01
179  1.7800000000000E+00  3.0142580542740E-02 -4.6697262130447E-01
180  1.7900000000000E+00  3.0442656477065E-02 -4.4364344207691E-01
181  1.8000000000000E+00  3.0245529937941E-02 -4.1846504835217E-01
182  1.8100000000000E+00  2.9604014945654E-02 -3.9177322055554E-01
183  1.8200000000000E+00  2.8572436382830E-02 -3.6390696243448E-01
184  1.8300000000000E+00  2.7206077543735E-02 -3.3520589013247E-01
185  1.8400000000000E+00  2.5560621340859E-02 -3.0600759596601E-01
186  1.8500000000000E+00  2.3691590065851E-02 -2.7664500961457E-01
187  1.8600000000000E+00  2.1653788605717E-02 -2.4744377942102E-01
188  1.8700000000000E+00  1.9500758445908E-02 -2.1871970567987E-01
189  1.8800000000000E+00  1.7284223420433E-02 -1.9077615903295E-01
190  1.8900000000000E+00  1.5053628072247E-02 -1.6390186231387E-01
191  1.9000000000000E+00  1.2855576579072E-02 -1.3836834319894E-01
192  1.9100000000000E+00  1.0732242088708E-02 -1.1442348723324E-01
193  1.9200000000000E+00  8.7204201414335E-03 -9.2287444412929E-02
194  1.9300000000000E+00  6.8567428413301E-03 -7.2171952429216E-02
195  1.9400000000000E+00  5.1735979301170E-03 -5.4264909196536E-02
196  1.9500000000000E+00  3.6982803774665E-03 -3.8726889830602E-02
197  1.9600000000000E+00  2.4528398388624E-03 -2.5690290345525E-02
198  1.9700000000000E+00  1.4540403796438E-03 -1.5260410485942E-02
199  1.9800000000000E+00  7.1196900025726E-04 -7.5014498468017E-03
200  1.9900000000000E+00  2.3169621838543E-04 -2.4552671508965E-03
201  2.0000000000000E+00  2.3735177170822E-05 -2.5361153449650E-04
202  2.0100000000000E+00 -7.9536520004558E-06  8.5250124419624E-05
203  2.0200000000000E+00  2.6293891890257E-06 -2.8040573870663E-05
204  2.03 -0.  0.
205  2.04 -0. -0.
206  2.05 -0. -0.
207  2.06  0.  0.
208  2.07  0.  0.
209  2.08  0.  0.
210  2.09  0.  0.
211  2.10  0.  0.
212  2.11  0.  0.
213  2.12  0.  0.
214  2.13  0.  0.
215  2.14  0.  0.
216  2.15  0.  0.
217  2.16  0.  0.
218  2.17  0.  0.
219  2.18  0.  0.
220  2.19  0.  0.
221  2.20  0.  0.
222  2.21  0.  0.
223  2.22  0.  0.
224  2.23  0.  0.
225  2.24  0.  0.
226  2.25  0.  0.
227  2.26  0.  0.
228  2.27  0.  0.
229  2.28  0.  0.
230  2.29  0.  0.
231  2.30  0.  0.
232  2.31  0.  0.
233  2.32  0.  0.
234  2.33  0.  0.
235  2.34  0.  0.
236  2.35  0.  0.
237  2.36  0.  0.
238  2.37  0.  0.
239  2.38  0.  0.
240  2.39  0.  0.
241  2.40  0.  0.
242  2.41  0.  0.
243  2.42  0.  0.
244  2.43  0.  0.
245  2.44  0.  0.
246  2.45  0.  0.
247  2.46  0.  0.
248  2.47  0.  0.
249  2.48  0.  0.
250  2.49  0.  0.
251  2.50  0.  0.
252  2.51  0.  0.
253  2.52  0.  0.
254  2.53  0.  0.
255  2.54  0.  0.
256  2.55  0.  0.
257  2.56  0.  0.
258  2.57  0.  0.
259  2.58  0.  0.
260  2.59  0.  0.
261  2.60  0.  0.
262  2.61  0.  0.
263  2.62  0.  0.
264  2.63  0.  0.
265  2.64  0.  0.
266  2.65  0.  0.
267  2.66  0.  0.
268  2.67  0.  0.
269  2.68  0.  0.
270  2.69  0.  0.
271  2.70  0.  0.
272  2.71  0.  0.
273  2.72  0.  0.
274  2.73  0.  0.
275  2.74  0.  0.
276  2.75  0.  0.
277  2.76  0.  0.
278  2.77  0.  0.
279  2.78  0.  0.
280  2.79  0.  0.
281  2.80  0.  0.
282  2.81  0.  0.
283  2.82  0.  0.
284  2.83  0.  0.
285  2.84  0.  0.
286  2.85  0.  0.
287  2.86  0.  0.
288  2.87  0.  0.
289  2.88  0.  0.
290  2.89  0.  0.
291  2.90  0.  0.
292  2.91  0.  0.
293  2.92  0.  0.
294  2.93  0.  0.
295  2.94  0.  0.
296  2.95  0.  0.
297  2.96  0.  0.
298  2.97  0.  0.
299  2.98  0.  0.
300  2.99  0.  0.
301  3.00  0.  0.
302  3.01  0.  0.
303  3.02  0.  0.
304  3.03  0.  0.
305  3.04  0.  0.
306  3.05  0.  0.
307  3.06  0.  0.
308  3.07  0.  0.
309  3.08  0.  0.
310  3.09  0.  0.
311  3.10  0.  0.
312  3.11  0.  0.
313  3.12  0.  0.
314  3.13  0.  0.
315  3.14  0.  0.
316  3.15  0.  0.
317  3.16  0.  0.
318  3.17  0.  0.
319  3.18  0.  0.
320  3.19  0.  0.
321  3.20  0.  0.
322  3.21  0.  0.
323  3.22  0.  0.
324  3.23  0.  0.
325  3.24  0.  0.
326  3.25  0.  0.
327  3.26  0.  0.
328  3.27  0.  0.
329  3.28  0.  0.
330  3.29  0.  0.
331  3.30  0.  0.
332  3.31  0.  0.
333  3.32  0.  0.
334  3.33  0.  0.
335  3.34  0.  0.
336  3.35  0.  0.
337  3.36  0.  0.
338  3.37  0.  0.
339  3.38  0.  0.
340  3.39  0.  0.
341  3.40  0.  0.
342  3.41  0.  0.
343  3.42  0.  0.
344  3.43  0.  0.
345  3.44  0.  0.
346  3.45  0.  0.
347  3.46  0.  0.
348  3.47  0.  0.
349  3.48  0.  0.
350  3.49  0.  0.
351  3.50  0.  0.
352  3.51  0.  0.
353  3.52  0.  0.
354  3.53  0.  0.
355  3.54  0.  0.
356  3.55  0.  0.
357  3.56  0.  0.
358  3.57  0.  0.
359  3.58  0.  0.
360  3.59  0.  0.
361  3.60  0.  0.
362  3.61  0.  0.
363  3.62  0.  0.
364  3.63  0.  0.
365  3.64  0.  0.
366  3.65  0.  0.
367  3.66  0.  0.
368  3.67  0.  0.
369  3.68  0.  0.
370  3.69  0.  0.
371  3.70  0.  0.
372  3.71  0.  0.
373  3.72  0.  0.
374  3.73  0.  0.
375  3.74  0.  0.
376  3.75  0.  0.
377  3.76  0.  0.
378  3.77  0.  0.
379  3.78  0.  0.
380  3.79  0.  0.
381  3.80  0.  0.
382  3.81  0.  0.
383  3.82  0.  0.
384  3.83  0.  0.
385  3.84  0.  0.
386  3.85  0.  0.
387  3.86  0.  0.
388  3.87  0.  0.
389  3.88  0.  0.
390  3.89  0.  0.
391  3.90  0.  0.
392  3.91  0.  0.
393  3.92  0.  0.
394  3.93  0.  0.
395  3.94  0.  0.
396  3.95  0.  0.
397  3.96  0.  0.
398  3.97  0.  0.
399  3.98  0.  0.
400  3.99  0.  0.
401  4.00  0.  0.
402  4.01  0.  0.
403  4.02  0.  0.
404  4.03  0.  0.
405  4.04  0.  0.
406  4.05  0.  0.
407  4.06  0.  0.
408  4.07  0.  0.
409  4.08  0.  0.
410  4.09  0.  0.
411  4.10  0.  0.
412  4.11  0.  0.
413  4.12  0.  0.
414  4.13  0.  0.
415  4.14  0.  0.
416  4.15  0.  0.
417  4.16  0.  0.
418  4.17  0.  0.
419  4.18  0.  0.
420  4.19  0.  0.
421  4.20  0.  0.
422  4.21  0.  0.
423  4.22  0.  0.
424  4.23  0.  0.
425  4.24  0.  0.
426  4.25  0.  0.
427  4.26  0.  0.
428  4.27  0.  0.
429  4.28  0.  0.
430  4.29  0.  0.
431  4.30  0.  0.
432  4.31  0.  0.
433  4.32  0.  0.
434  4.33  0.  0.
435  4.34  0.  0.
436  4.35  0.  0.
437  4.36  0.  0.
438  4.37  0.  0.
439  4.38  0.  0.
440  4.39  0.  0.
441  4.40  0.  0.
442  4.41  0.  0.
443  4.42  0.  0.
444  4.43  0.  0.
445  4.44  0.  0.
446  4.45  0.  0.
447  4.46  0.  0.
448  4.47  0.  0.
449  4.48  0.  0.
450  4.49  0.  0.
451  4.50  0.  0.
452  4.51  0.  0.
453  4.52  0.  0.
454  4.53  0.  0.
455  4.54  0.  0.
456  4.55  0.  0.
457  4.56  0.  0.
458  4.57  0.  0.
459  4.58  0.  0.
460  4.59  0.  0.
461  4.60  0.  0.
462  4.61  0.  0.
463  4.62  0.  0.
464  4.63  0.  0.
465  4.64  0.  0.
466  4.65  0.  0.
467  4.66  0.  0.
468  4.67  0.  0.
469  4.68  0.  0.
470  4.69  0.  0.
471  4.70  0.  0.
472  4.71  0.  0.
473  4.72  0.  0.
474  4.73  0.  0.
475  4.74  0.  0.
476  4.75  0.  0.
477  4.76  0.  0.
478  4.77  0.  0.
479  4.78  0.  0.
480  4.79  0.  0.
481  4.80  0.  0.
482  4.81  0.  0.
483  4.82  0.  0.
484  4.83  0.  0.
485  4.84  0.  0.
486  4.85  0.  0.
487  4.86  0.  0.
488  4.87  0.  0.
489  4.88  0.  0.
490  4.89  0.  0.
491  4.90  0.  0.
492  4.91  0.  0.
493  4.92  0.  0.
494  4.93  0.  0.
495  4.94  0.  0.
496  4.95  0.  0.
497  4.96  0.  0.
498  4.97  0.  0.
499  4.98  0.  0.
500  4.99  0.  0.
501  5.00  0.  0.
502  5.01  0.  0.
503  5.02  0.  0.
504  5.03  0.  0.
505  5.04  0.  0.
506  5.05  0.  0.
507  5.06  0.  0.
508  5.07  0.  0.
509  5.08  0.  0.
510  5.09  0.  0.
511  5.10  0.  0.
512  5.11  0.  0.
513  5.12  0.  0.
514  5.13  0.  0.
515  5.14  0.  0.
516  5.15  0.  0.
517  5.16  0.  0.
518  5.17  0.  0.
519  5.18  0.  0.
520  5.19  0.  0.
521  5.20  0.  0.
522  5.21  0.  0.
523  5.22  0.  0.
524  5.23  0.  0.
525  5.24  0.  0.
526  5.25  0.  0.
527  5.26  0.  0.
528  5.27  0.  0.
529  5.28  0.  0.
530  5.29  0.  0.
531  5.30  0.  0.
532  5.31  0.  0.
533  5.32  0.  0.
534  5.33  0.  0.
535  5.34  0.  0.
536  5.35  0.  0.
537  5.36  0.  0.
538  5.37  0.  0.
539  5.38  0.  0.
540  5.39  0.  0.
541  5.40  0.  0.
542  5.41  0.  0.
543  5.42  0.  0.
544  5.43  0.  0.
545  5.44  0.  0.
546  5.45  0.  0.
547  5.46  0.  0.
548  5.47  0.  0.
549  5.48  0.  0.
550  5.49  0.  0.
551  5.50  0.  0.
552  5.51  0.  0.
553  5.52  0.  0.
554  5.53  0.  0.
555  5.54  0.  0.
556  5.55  0.  0.
557  5.56  0.  0.
558  5.57  0.  0.
559  5.58  0.  0.
560  5.59  0.  0.
561  5.60  0.  0.
562  5.61  0.  0.
563  5.62  0.  0.
564  5.63  0.  0.
565  5.64  0.  0.
566  5.65  0.  0.
567  5.66  0.  0.
568  5.67  0.  0.
569  5.68  0.  0.
570  5.69  0.  0.
571  5.70  0.  0.
572  5.71  0.  0.
573  5.72  0.  0.
574  5.73  0.  0.
575  5.74  0.  0.
576  5.75  0.  0.
577  5.76  0.  0.
578  5.77  0.  0.
579  5.78  0.  0.
580  5.79  0.  0.
581  5.80  0.  0.
582  5.81  0.  0.
583  5.82  0.  0.
584  5.83  0.  0.
585  5.84  0.  0.
586  5.85  0.  0.
587  5.86  0.  0.
588  5.87  0.  0.
589  5.88  0.  0.
590  5.89  0.  0.
591  5.90  0.  0.
592  5.91  0.  0.
593  5.92  0.  0.
594  5.93  0.  0.
595  5.94  0.  0.
596  5.95  0.  0.
597  5.96  0.  0.
598  5.97  0.  0.
599  5.98  0.  0.
600  5.99  0.  0.
1                         5.0124663601603E+00  2.3015571512257E-01
1  0.0000000000000E+00  6.6445873664334E-09 -8.4330324390258E-08
2  1.0000000000000E-02  1.4283265064274E-03 -6.5252071624449E-03
3  2.0000000000000E-02  5.7005769362227E-03 -2.5962278004212E-02
4  3.0000000000000E-02  1.2778772884223E-02 -5.7898208597076E-02
5  4.0000000000000E-02  2.2600309327537E-02 -1.0165343652172E-01
6  5.0000000000000E-02  3.5078979555217E-02 -1.5629483564680E-01
7  6.0000000000000E-02  5.0106383232982E-02 -2.2065356923133E-01
8  7.0000000000000E-02  6.7553691370404E-02 -2.9334746925833E-01
9  8.0000000000000E-02  8.7273735313412E-02 -3.7280752557760E-01
10  9.0000000000000E-02  1.0910338085662E-01 -4.5730799175739E-01
11  1.0000000000000E-01  1.3286614327094E-01 -5.4499954692711E-01
12  1.1000000000000E-01  1.5837499457207E-01 -6.3394489558532E-01
13  1.2000000000000E-01  1.8543531079866E-01 -7.2215614140411E-01
14  1.3000000000000E-01  2.1384790449334E-01 -8.0763323733718E-01
15  1.4000000000000E-01  2.4341208603355E-01 -8.8840279345957E-01
16  1.5000000000000E-01  2.7392869697290E-01 -9.6255651632965E-01
17  1.6000000000000E-01  3.0520305913746E-01 -1.0282885594154E+00
18  1.7000000000000E-01  3.3704778486571E-01 -1.0839310831819E+00
19  1.8000000000000E-01  3.6928539645511E-01 -1.1279873554515E+00
20  1.9000000000000E-01  4.0175070653558E-01 -1.1591617670534E+00
21  2.0000000000000E-01  4.3429291566133E-01 -1.1763861937748E+00
22  2.1000000000000E-01  4.6677738881438E-01 -1.1788422021964E+00
23  2.2000000000000E-01  4.9908707864560E-01 -1.1659786729288E+00
24  2.3000000000000E-01  5.3112357002741E-01 -1.1375244986932E+00
25  2.4000000000000E-01  5.6280772773213E-01 -1.0934961050640E+00
26  2.5000000000000E-01  5.9407993664518E-01 -1.0341996368801E+00
27  2.6000000000000E-01  6.2489993173179E-01 -9.6022775158242E-01
28  2.7000000000000E-01  6.5524622285237E-01 -8.7245106025453E-01
29  2.8000000000000E-01  6.8511512731852E-01 -7.7200435610878E-01
30  2.9000000000000E-01  7.1451943065069E-01 -6.6026786674712E-01
31  3.0000000000000E-01  7.4348670319771E-01 -5.3884385896420E-01
32  3.1000000000000E-01  7.7205730697141E-01 -4.0952901143984E-01
33  3.2000000000000E-01  8.0028213310787E-01 -2.7428304979272E-01
34  3.3000000000000E-01  8.2822011567662E-01 -1.3519420866814E-01
35  3.4000000000000E-01  8.5593557201588E-01  5.5578544962410E-03
36  3.5000000000000E-01  8.8349542329084E-01  1.4574102076060E-01
37  3.6000000000000E-01  9.1096635148305E-01  2.8311083640818E-01
38  3.7000000000000E-01  9.3841195047090E-01  4.1545107208679E-01
39  3.8000000000000E-01  9.6588992922443E-01  5.4061397136603E-01
40  3.9000000000000E-01  9.9344942439916E-01  6.5655944935293E-01
41  4.0000000000000E-01  1.0211284777857E+00  7.6139251924157E-01
42  4.1000000000000E-01  1.0489517311821E+00  8.5339825520547E-01
43  4.2000000000000E-01  1.0769283873559E+00  9.3107364334504E-01
44  4.3000000000000E-01  1.1050504809222E+00  9.9315572770744E-01
45  4.4000000000000E-01  1.1332914972680E+00  1.0386455247158E+00
46  4.5000000000000E-01  1.1616053712060E+00  1.0668272554819E+00
47  4.6000000000000E-01  1.1899258899622E+00  1.0772825300587E+00
48  4.7000000000000E-01  1.2181665175193E+00  1.0698992091793E+00
49  4.8000000000000E-01  1.2462206493908E+00  1.0448747657592E+00
50  4.9000000000000E-01  1.2739622987421E+00  1.0027140686523E+00
51  5.0000000000000E-01  1.3012472065503E+00  9.4422161300262E-01
52  5.1000000000000E-01  1.3279143603611E+00  8.7048832316560E-01
53  5.2000000000000E-01  1.3537878983130E+00  7.8287315370948E-01
54  5.3000000000000E-01  1.3786793676042E+00  6.8297980962042E-01
55  5.4000000000000E-01  1.4023902996131E+00  5.7262899675299E-01
56  5.5000000000000E-01  1.4247150575975E+00  4.5382669612858E-01
57  5.6000000000000E-01  1.4454439073883E+00  3.2872902935419E-01
58  5.7000000000000E-01  1.4643662568934E+00  1.9960434583719E-01
59  5.8000000000000E-01  1.4812740066030E+00  6.8793214423547E-02
60  5.9000000000000E-01  1.4959649507331E+00 -6.1332958394389E-02
61  6.0000000000000E-01  1.5082461671915E+00 -1.8841393521632E-01
62  6.1000000000000E-01  1.5179373342520E+00 -3.1014251829271E-01
63  6.2000000000000E-01  1.5248739126753E+00 -4.2430552408478E-01
64  6.3000000000000E-01  1.5289101340126E+00 -5.2882311726720E-01
65  6.4000000000000E-01  1.5299217389425E+00 -6.2178578857140E-01
66  6.5000000000000E-01  1.5278084136640E+00 -7.0148830300647E-01
67  6.6000000000000E-01  1.5224958775284E+00 -7.6645999956423E-01
68  6.7000000000000E-01  1.5139375811490E+00 -8.1549088952605E-01
69  6.8000000000000E-01  1.5021159810706E+00 -8.4765307673620E-01
70  6.9000000000000E-01  1.4870433645818E+00 -8.6231710830732E-01
71  7.0000000000000E-01  1.4687622062858E+00 -8.5916295660116E-01
72  7.1000000000000E-01  1.4473450464454E+00 -8.3818543130360E-01
73  7.2000000000000E-01  1.4228938897509E+00 -7.9969392216317E-01
74  7.3000000000000E-01  1.3955391318405E+00 -7.4430647662447E-01
75  7.4000000000000E-01  1.3654380294972E+00 -6.7293832023779E-01
76  7.5000000000000E-01  1.3327727387661E+00 -5.8678502944209E-01
77  7.6000000000000E-01  1.2977479531463E+00 -4.8730066422580E-01
78  7.7000000000000E-01  1.2605881813529E+00 -3.7617126043995E-01
79  7.8000000000000E-01  1.2215347107783E+00 -2.5528416646254E-01
80  7.9000000000000E-01  1.1808423085831E+00 -1.2669378491083E-01
81  8.0000000000000E-01  1.1387757172083E+00  7.4156542416288E-03
82  8.1000000000000E-01  1.0956060049216E+00  1.4476960869236E-01
83  8.2000000000000E-01  1.0516068347198E+00  2.8304430500252E-01
84  8.3000000000000E-01  1.0070507164584E+00  4.1990863579437E-01
85  8.4000000000000E-01  9.6220530742632E-01  5.5306610847173E-01
86  8.5000000000000E-01  9.1732982572907E-01  6.8029608079585E-01
87  8.6000000000000E-01  8.7267163879361E-01  7.9949353258753E-01
88  8.7000000000000E-01  8.2846308610429E-01  9.0870665063202E-01
89  8.8000000000000E-01  7.8491859097500E-01  1.0061715450026E+00
90  8.9000000000000E-01  7.4223211084086E-01  1.0903434687215E+00
91  9.0000000000000E-01  7.0057496930866E-01  1.1599239779274E+00
92  9.1000000000000E-01  6.6009410615760E-01  1.2138835452903E+00
93  9.2000000000000E-01  6.2091077376003E-01  1.2514792238813E+00
94  9.3000000000000E-01  5.8311970014167E-01  1.2722670504859E+00
95  9.4000000000000E-01  5.4678873027728E-01  1.2761089747053E+00
96  9.5000000000000E-01  5.1195894838155E-01  1.2631742013121E+00
97  9.6000000000000E-01  4.7864527507369E-01  1.2339349363046E+00
98  9.7000000000000E-01  4.4683752453540E-01  1.1891566300089E+00
99  9.8000000000000E-01  4.1650189830855E-01  1.1298829115078E+00
100  9.9000000000000E-01  3.8758288435640E-01  1.0574155056853E+00
101  1.0000000000000E+00  3.6000552258169E-01  9.7328951557996E-01
102  1.0100000000000E+00  3.3367799130840E-01  8.7924453670919E-01
103  1.0200000000000E+00  3.0849446340944E-01  7.7719214509343E-01
104  1.0300000000000E+00  2.8433817591098E-01  6.6918036549757E-01
105  1.0400000000000E+00  2.6108465311677E-01  5.5735577972235E-01
106  1.0500000000000E+00  2.3860502064567E-01  4.4392397563979E-01
107  1.0600000000000E+00  2.1676934630419E-01  3.3110906544491E-01
108  1.0700000000000E+00  1.9544994345936E-01  2.2111301572354E-01
109  1.0800000000000E+00  1.7452457352487E-01  1.1607553232035E-01
110  1.0900000000000E+00  1.5387948632308E-01  1.8035229572262E-02
111  1.1000000000000E+00  1.3341224037071E-01 -7.1107213272118E-02
112  1.1100000000000E+00  1.1303424951620E-01 -1.4962324529281E-01
113  1.1200000000000E+00  9.2673007725609E-02 -2.1598737525953E-01
114  1.1300000000000E+00  7.2273950078457E-02 -2.6890429218264E-01
115  1.1400000000000E+00  5.1801915072780E-02 -3.0733169849000E-01
116  1.1500000000000E+00  3.1242181004593E-02 -3.3049845985737E-01
117  1.1600000000000E+00  1.0601057348536E-02 -3.3791776313709E-01
118  1.1700000000000E+00 -1.0093979446763E-02 -3.2939506623055E-01
119  1.1800000000000E+00 -3.0794607684422E-02 -3.0503071937248E-01
120  1.1900000000000E+00 -5.1432432927033E-02 -2.6521723460870E-01
121  1.2000000000000E+00 -7.1920196076562E-02 -2.1063127668938E-01
122  1.2100000000000E+00 -9.2153393603192E-02 -1.4222054359700E-01
123  1.2200000000000E+00 -1.1201227883769E-01 -6.1185795103605E-02
124  1.2300000000000E+00 -1.3136420612808E-01  3.1041626831598E-02
125  1.2400000000000E+00 -1.5006627334255E-01  1.3282636424098E-01
126  1.2500000000000E+00 -1.6796821273774E-01  2.4235920494618E-01
127  1.2600000000000E+00 -1.8491547569096E-01  3.5769028901879E-01
128  1.2700000000000E+00 -2.0075245334876E-01  4.7676476004449E-01
129  1.2800000000000E+00 -2.1532577287453E-01  5.9746022353277E-01
130  1.2900000000000E+00 -2.2848760775374E-01  7.1762534904902E-01
131  1.3000000000000E+00 -2.4009894054366E-01  8.3511893917277E-01
132  1.3100000000000E+00 -2.5003271751359E-01  9.4784878703176E-01
133  1.3200000000000E+00 -2.5817683680218E-01  1.0538096549248E+00
134  1.3300000000000E+00 -2.6443691495183E-01  1.1511197288826E+00