Gd    ONCVPSP-4.0.1  r_core=   2.00348   1.60569   1.90986   1.60569
64.0000     18.0000      250626    zatom,zion,pspd
8      11   3     4   600     0    pspcod,pspxc,lmax,lloc,mmax,r2well
5.99000000 13.60000000  0.00000000    rchrg fchrg qchrg
2     2     2     2     0    nproj
1     1           extension_switch
0                         6.6559221062542E+00  5.3003827668686E-01
1  0.0000000000000E+00  9.9901031891392E-11 -4.1823918286998E-10
2  1.0000000000000E-02  4.1954240705349E-02 -1.6606457156757E-03
3  2.0000000000000E-02  8.3886374931626E-02 -3.3739028231087E-03
4  3.0000000000000E-02  1.2577409486352E-01 -5.1915119598739E-03
5  4.0000000000000E-02  1.6759469254410E-01 -7.1634823151763E-03
6  5.0000000000000E-02  2.0932486610565E-01 -9.3372509484013E-03
7  6.0000000000000E-02  2.5094053349094E-01 -1.1756871859696E-02
8  7.0000000000000E-02  2.9241665604361E-01 -1.4462244234419E-02
9  8.0000000000000E-02  3.3372707424615E-01 -1.7488388865054E-02
10  9.0000000000000E-02  3.7484435776119E-01 -2.0864781239337E-02
11  1.0000000000000E-01  4.1573967178653E-01 -2.4614749177177E-02
12  1.1000000000000E-01  4.5638266156889E-01 -2.8754942207552E-02
13  1.2000000000000E-01  4.9674135673694E-01 -3.3294879107090E-02
14  1.3000000000000E-01  5.3678209691231E-01 -3.8236579182023E-02
15  1.4000000000000E-01  5.7646947984074E-01 -4.3574281973734E-02
16  1.5000000000000E-01  6.1576633305538E-01 -4.9294259113677E-02
17  1.6000000000000E-01  6.5463370984382E-01 -5.5374721056664E-02
18  1.7000000000000E-01  6.9303091004105E-01 -6.1785820391752E-02
19  1.8000000000000E-01  7.3091552591569E-01 -6.8489752378701E-02
20  1.9000000000000E-01  7.6824351315780E-01 -7.5440952295111E-02
21  2.0000000000000E-01  8.0496928671736E-01 -8.2586388117068E-02
22  2.1000000000000E-01  8.4104584098429E-01 -8.9865946004217E-02
23  2.2000000000000E-01  8.7642489354708E-01 -9.7212905030792E-02
24  2.3000000000000E-01  9.1105705151995E-01 -1.0455449660739E-01
25  2.4000000000000E-01  9.4489199919066E-01 -1.1181254308503E-01
26  2.5000000000000E-01  9.7787870551430E-01 -1.1890416913310E-01
27  2.6000000000000E-01  1.0099656497660E+00 -1.2574257864672E-01
28  2.7000000000000E-01  1.0411010634688E+00 -1.3223788917475E-01
29  2.8000000000000E-01  1.0712331865341E+00 -1.3829801517627E-01
30  2.9000000000000E-01  1.1003105353935E+00 -1.4382959081840E-01
31  3.0000000000000E-01  1.1282821807622E+00 -1.4873892252886E-01
32  3.1000000000000E-01  1.1550980325619E+00 -1.5293296111691E-01
33  3.2000000000000E-01  1.1807091294376E+00 -1.5632028298435E-01
34  3.3000000000000E-01  1.2050679302396E+00 -1.5881206976379E-01
35  3.4000000000000E-01  1.2281286048015E+00 -1.6032307565084E-01
36  3.5000000000000E-01  1.2498473213307E+00 -1.6077257173911E-01
37  3.6000000000000E-01  1.2701825277431E+00 -1.6008525682400E-01
38  3.7000000000000E-01  1.2890952243116E+00 -1.5819212441122E-01
39  3.8000000000000E-01  1.3065492250644E+00 -1.5503127604781E-01
40  3.9000000000000E-01  1.3225114054601E+00 -1.5054867158359E-01
41  4.0000000000000E-01  1.3369519339840E+00 -1.4469880756455E-01
42  4.1000000000000E-01  1.3498444854489E+00 -1.3744531565282E-01
43  4.2000000000000E-01  1.3611664339449E+00 -1.2876147375227E-01
44  4.3000000000000E-01  1.3708990235695E+00 -1.1863062338863E-01
45  4.4000000000000E-01  1.3790275152667E+00 -1.0704648783827E-01
46  4.5000000000000E-01  1.3855413083269E+00 -9.4013386513008E-02
47  4.6000000000000E-01  1.3904340353325E+00 -7.9546342177192E-02
48  4.7000000000000E-01  1.3937036295791E+00 -6.3671078689484E-02
49  4.8000000000000E-01  1.3953523642626E+00 -4.6423908111666E-02
50  4.9000000000000E-01  1.3953868629846E+00 -2.7851507200108E-02
51  5.0000000000000E-01  1.3938180813989E+00 -8.0105844797227E-03
52  5.1000000000000E-01  1.3906612600937E+00  1.3032559717758E-02
53  5.2000000000000E-01  1.3859358490758E+00  3.5202576701061E-02
54  5.3000000000000E-01  1.3796654044904E+00  5.8415711660404E-02
55  5.4000000000000E-01  1.3718774584721E+00  8.2580538908649E-02
56  5.5000000000000E-01  1.3626033632773E+00  1.0759878327600E-01
57  5.6000000000000E-01  1.3518781110879E+00  1.3336621982397E-01
58  5.7000000000000E-01  1.3397401311062E+00  1.5977364312820E-01
59  5.8000000000000E-01  1.3262310657722E+00  1.8670789654781E-01
60  5.9000000000000E-01  1.3113955281277E+00  2.1405295116176E-01
61  6.0000000000000E-01  1.2952808425253E+00  2.4169102341592E-01
62  6.1000000000000E-01  1.2779367710312E+00  2.6950371999913E-01
63  6.2000000000000E-01  1.2594152279976E+00  2.9737319805633E-01
64  6.3000000000000E-01  1.2397699853825E+00  3.2518332855888E-01
65  6.4000000000000E-01  1.2190563714721E+00  3.5282085049020E-01
66  6.5000000000000E-01  1.1973309657067E+00  3.8017650347092E-01
67  6.6000000000000E-01  1.1746512923359E+00  4.0714612654431E-01
68  6.7000000000000E-01  1.1510755156215E+00  4.3363171106934E-01
69  6.8000000000000E-01  1.1266621392708E+00  4.5954239602372E-01
70  6.9000000000000E-01  1.1014697127259E+00  4.8479539450077E-01
71  7.0000000000000E-01  1.0755565468436E+00  5.0931684078658E-01
72  7.1000000000000E-01  1.0489804413905E+00  5.3304254812387E-01
73  7.2000000000000E-01  1.0217984266381E+00  5.5591866809728E-01
74  7.3000000000000E-01  9.9406652118655E-01  5.7790224350550E-01
75  7.4000000000000E-01  9.6583950796065E-01  5.9896164760854E-01
76  7.5000000000000E-01  9.3717073012588E-01  6.1907690374299E-01
77  7.6000000000000E-01  9.0811190845437E-01  6.3823988047389E-01
78  7.7000000000000E-01  8.7871298144015E-01  6.5645435868643E-01
79  7.8000000000000E-01  8.4902196922134E-01  6.7373596830159E-01
80  7.9000000000000E-01  8.1908486211545E-01  6.9011199361267E-01
81  8.0000000000000E-01  7.8894553431646E-01  7.0562104757311E-01
82  8.1000000000000E-01  7.5864568304143E-01  7.2031261670332E-01
83  8.2000000000000E-01  7.2822479315292E-01  7.3424647961344E-01
84  8.3000000000000E-01  6.9772012702411E-01  7.4749200344536E-01
85  8.4000000000000E-01  6.6716673915939E-01  7.6012732380687E-01
86  8.5000000000000E-01  6.3659751483666E-01  7.7223841499153E-01
87  8.6000000000000E-01  6.0604323180152E-01  7.8391805843477E-01
88  8.7000000000000E-01  5.7553264382013E-01  7.9526471844121E-01
89  8.8000000000000E-01  5.4509258468942E-01  8.0638133521485E-01
90  8.9000000000000E-01  5.1474809111199E-01  8.1737404612743E-01
91  9.0000000000000E-01  4.8452254267086E-01  8.2835084695737E-01
92  9.1000000000000E-01  4.5443781698768E-01  8.3942020551789E-01
93  9.2000000000000E-01  4.2451445801754E-01  8.5068964066067E-01
94  9.3000000000000E-01  3.9477185532677E-01  8.6226428008503E-01
95  9.4000000000000E-01  3.6522843211562E-01  8.7424541070076E-01
96  9.5000000000000E-01  3.3590183968796E-01  8.8672903548099E-01
97  9.6000000000000E-01  3.0680915603337E-01  8.9980445080242E-01
98  9.7000000000000E-01  2.7796708617407E-01  9.1355285820160E-01
99  9.8000000000000E-01  2.4939216193903E-01  9.2804602428454E-01
100  9.9000000000000E-01  2.2110093885911E-01  9.4334500221253E-01
101  1.0000000000000E+00  1.9311018793004E-01  9.5949892775913E-01
102  1.0100000000000E+00  1.6543708006127E-01  9.7654390239605E-01
103  1.0200000000000E+00  1.3809936111886E-01  9.9450197522796E-01
104  1.0300000000000E+00  1.1111551557506E-01  1.0133802348680E+00
105  1.0400000000000E+00  8.4504916896697E-02  1.0331700215345E+00
106  1.0500000000000E+00  5.8287962934516E-02  1.0538462687684E+00
107  1.0600000000000E+00  3.2486194715215E-02  1.0753669832304E+00
108  1.0700000000000E+00  7.1223971846996E-03  1.0976728700445E+00
109  1.0800000000000E+00 -1.7779319398256E-02  1.1206871101308E+00
110  1.0900000000000E+00 -4.2193458564879E-02  1.1443152949146E+00
111  1.1000000000000E+00 -6.6093098229544E-02  1.1684455227335E+00
112  1.1100000000000E+00 -8.9449873614955E-02  1.1929486601894E+00
113  1.1200000000000E+00 -1.1223398320325E-01  1.2176787706283E+00
114  1.1300000000000E+00 -1.3441421826401E-01  1.2424737108731E+00
115  1.1400000000000E+00 -1.5595801637400E-01  1.2671558963051E+00
116  1.1500000000000E+00 -1.7683153921477E-01  1.2915332333818E+00
117  1.1600000000000E+00 -1.9699977481346E-01  1.3154002177025E+00
118  1.1700000000000E+00 -2.1642666427990E-01  1.3385391947928E+00
119  1.1800000000000E+00 -2.3507525298883E-01  1.3607217798687E+00
120  1.1900000000000E+00 -2.5290786605866E-01  1.3817104319650E+00
121  1.2000000000000E+00 -2.6988630788766E-01  1.4012601769657E+00
122  1.2100000000000E+00 -2.8597208542138E-01  1.4191204732456E+00
123  1.2200000000000E+00 -3.0112665474096E-01  1.4350372128248E+00
124  1.2300000000000E+00 -3.1531169047686E-01  1.4487548501251E+00
125  1.2400000000000E+00 -3.2848937746326E-01  1.4600186496012E+00
126  1.2500000000000E+00 -3.4062272395261E-01  1.4685770426802E+00
127  1.2600000000000E+00 -3.5167589560059E-01  1.4741840835512E+00
128  1.2700000000000E+00 -3.6161456930738E-01  1.4766019924056E+00
129  1.2800000000000E+00 -3.7040630585421E-01  1.4756037736959E+00
130  1.2900000000000E+00 -3.7802094009994E-01  1.4709758958399E+00
131  1.3000000000000E+00 -3.8443098729490E-01  1.4625210175283E+00
132  1.3100000000000E+00 -3.8961206382226E-01  1.4500607443588E+00
133  1.3200000000000E+00 -3.9354332038291E-01  1.4334383978957E+00
134  1.3300000000000E+00 -3.9620788529175E-01  1.4125217774084E+00
135  1.3400000000000E+00 -3.9759331514727E-01  1.3872058924525E+00
136  1.3500000000000E+00 -3.9769204965678E-01  1.3574156420644E+00
137  1.3600000000000E+00 -3.9650186684873E-01  1.3231084136435E+00
138  1.3700000000000E+00 -3.9402633426434E-01  1.2842765715304E+00
139  1.3800000000000E+00 -3.9027525099570E-01  1.2409498018536E+00
140  1.3900000000000E+00 -3.8526507460228E-01  1.1931972763168E+00
141  1.4000000000000E+00 -3.7901932600304E-01  1.1411295932671E+00
142  1.4100000000000E+00 -3.7156896438274E-01  1.0849004495197E+00
143  1.4200000000000E+00 -3.6295272297039E-01  1.0247079910264E+00
144  1.4300000000000E+00 -3.5321739523075E-01  9.6079578448590E-01
145  1.4400000000000E+00 -3.4241805954577E-01  8.9345334537273E-01
146  1.4500000000000E+00 -3.3061822885146E-01  8.2301615058540E-01
147  1.4600000000000E+00 -3.1788990991831E-01  7.4986505591593E-01
148  1.4700000000000E+00 -3.0431355501129E-01  6.7442502976678E-01
149  1.4800000000000E+00 -2.8997788654166E-01  5.9716310500622E-01
150  1.4900000000000E+00 -2.7497957299299E-01  5.1858544039939E-01
151  1.5000000000000E+00 -2.5942273188010E-01  4.3923337173171E-01
152  1.5100000000000E+00 -2.4341823276115E-01  3.5967832045675E-01
153  1.5200000000000E+00 -2.2708277035701E-01  2.8051541438934E-01
154  1.5300000000000E+00 -2.1053767462994E-01  2.0235566058648E-01
155  1.5400000000000E+00 -1.9390742122186E-01  1.2581649504591E-01
156  1.5500000000000E+00 -1.7731780193637E-01  5.1510517136898E-02
157  1.5600000000000E+00 -1.6089371095414E-01 -1.9967801312865E-02
158  1.5700000000000E+00 -1.4475649820007E-01 -8.8057661608510E-02
159  1.5800000000000E+00 -1.2902083514185E-01 -1.5224999843930E-01
160  1.5900000000000E+00 -1.1379103327722E-01 -2.1210833613253E-01
161  1.6000000000000E+00 -9.9156856840168E-02 -2.6729207233111E-01
162  1.6100000000000E+00 -8.5188183986894E-02 -3.1758620067237E-01
163  1.6200000000000E+00 -7.1934349308641E-02 -3.6289993014430E-01
164  1.6300000000000E+00 -5.9433257258668E-02 -4.0320373791438E-01
165  1.6400000000000E+00 -4.7716889075829E-02 -4.3849263153470E-01
166  1.6500000000000E+00 -3.6810873412067E-02 -4.6878858969707E-01
167  1.6600000000000E+00 -2.6734488733781E-02 -4.9414025098687E-01
168  1.6700000000000E+00 -1.7500629109912E-02 -5.1462295500209E-01
169  1.6800000000000E+00 -9.1158182256303E-03 -5.3033856894520E-01
170  1.6900000000000E+00 -1.5802759738437E-03 -5.4141507386523E-01
171  1.7000000000000E+00  5.1119647703711E-03 -5.4800592577758E-01
172  1.7100000000000E+00  1.0972892288036E-02 -5.5028919739462E-01
173  1.7200000000000E+00  1.6020301496118E-02 -5.4846650135464E-01
174  1.7300000000000E+00  2.0277532637622E-02 -5.4276170401216E-01
175  1.7400000000000E+00  2.3773165048324E-02 -5.3341943813351E-01
176  1.7500000000000E+00  2.6540668384377E-02 -5.2070342536978E-01
177  1.7600000000000E+00  2.8618014082971E-02 -5.0489462113260E-01
178  1.7700000000000E+00  3.0047250235422E-02 -4.8628919639881E-01
179  1.7800000000000E+00  3.0874043380412E-02 -4.6519637244186E-01
180  1.7900000000000E+00  3.1147191047980E-02 -4.4193612596953E-01
181  1.8000000000000E+00  3.0918109195933E-02 -4.1683678360103E-01
182  1.8100000000000E+00  3.0240298901283E-02 -3.9023252559284E-01
183  1.8200000000000E+00  2.9168796919725E-02 -3.6246081991531E-01
184  1.8300000000000E+00  2.7759614853950E-02 -3.3385980832036E-01
185  1.8400000000000E+00  2.6069171827337E-02 -3.0476566678990E-01
186  1.8500000000000E+00  2.4153725651443E-02 -2.7550996318340E-01
187  1.8600000000000E+00  2.2068807475461E-02 -2.4641703486744E-01
188  1.8700000000000E+00  1.9868667363093E-02 -2.1780141832682E-01
189  1.8800000000000E+00  1.7605711604443E-02 -1.8996526375011E-01
190  1.8900000000000E+00  1.5330033782237E-02 -1.6319611430059E-01
191  1.9000000000000E+00  1.3088844959710E-02 -1.3776435303673E-01
192  1.9100000000000E+00  1.0924866513079E-02 -1.1391675022836E-01
193  1.9200000000000E+00  8.8753765532051E-03 -9.1872381162047E-02
194  1.9300000000000E+00  6.9774687717775E-03 -7.1841976286158E-02
195  1.9400000000000E+00  5.2639234769579E-03 -5.4012437914083E-02
196  1.9500000000000E+00  3.7623497395288E-03 -3.8543352934774E-02
197  1.9600000000000E+00  2.4950314720391E-03 -2.5566141842514E-02
198  1.9700000000000E+00  1.4788884364051E-03 -1.5185134048292E-02
199  1.9800000000000E+00  7.2406314773746E-04 -7.4636403605982E-03
200  1.9900000000000E+00  2.3561026815428E-04 -2.4426086654235E-03
201  2.0000000000000E+00  2.4132803900089E-05 -2.5226335928680E-04
202  2.0100000000000E+00 -8.0874455604703E-06  8.4797237090445E-05
203  2.0200000000000E+00  2.6736922971945E-06 -2.7893414688787E-05
204  2.03 -0.  0.
205  2.04 -0. -0.
206  2.05 -0. -0.
207  2.06  0.  0.
208  2.07  0.  0.
209  2.08  0.  0.
210  2.09  0.  0.
211  2.10  0.  0.
212  2.11  0.  0.
213  2.12  0.  0.
214  2.13  0.  0.
215  2.14  0.  0.
216  2.15  0.  0.
217  2.16  0.  0.
218  2.17  0.  0.
219  2.18  0.  0.
220  2.19  0.  0.
221  2.20  0.  0.
222  2.21  0.  0.
223  2.22  0.  0.
224  2.23  0.  0.
225  2.24  0.  0.
226  2.25  0.  0.
227  2.26  0.  0.
228  2.27  0.  0.
229  2.28  0.  0.
230  2.29  0.  0.
231  2.30  0.  0.
232  2.31  0.  0.
233  2.32  0.  0.
234  2.33  0.  0.
235  2.34  0.  0.
236  2.35  0.  0.
237  2.36  0.  0.
238  2.37  0.  0.
239  2.38  0.  0.
240  2.39  0.  0.
241  2.40  0.  0.
242  2.41  0.  0.
243  2.42  0.  0.
244  2.43  0.  0.
245  2.44  0.  0.
246  2.45  0.  0.
247  2.46  0.  0.
248  2.47  0.  0.
249  2.48  0.  0.
250  2.49  0.  0.
251  2.50  0.  0.
252  2.51  0.  0.
253  2.52  0.  0.
254  2.53  0.  0.
255  2.54  0.  0.
256  2.55  0.  0.
257  2.56  0.  0.
258  2.57  0.  0.
259  2.58  0.  0.
260  2.59  0.  0.
261  2.60  0.  0.
262  2.61  0.  0.
263  2.62  0.  0.
264  2.63  0.  0.
265  2.64  0.  0.
266  2.65  0.  0.
267  2.66  0.  0.
268  2.67  0.  0.
269  2.68  0.  0.
270  2.69  0.  0.
271  2.70  0.  0.
272  2.71  0.  0.
273  2.72  0.  0.
274  2.73  0.  0.
275  2.74  0.  0.
276  2.75  0.  0.
277  2.76  0.  0.
278  2.77  0.  0.
279  2.78  0.  0.
280  2.79  0.  0.
281  2.80  0.  0.
282  2.81  0.  0.
283  2.82  0.  0.
284  2.83  0.  0.
285  2.84  0.  0.
286  2.85  0.  0.
287  2.86  0.  0.
288  2.87  0.  0.
289  2.88  0.  0.
290  2.89  0.  0.
291  2.90  0.  0.
292  2.91  0.  0.
293  2.92  0.  0.
294  2.93  0.  0.
295  2.94  0.  0.
296  2.95  0.  0.
297  2.96  0.  0.
298  2.97  0.  0.
299  2.98  0.  0.
300  2.99  0.  0.
301  3.00  0.  0.
302  3.01  0.  0.
303  3.02  0.  0.
304  3.03  0.  0.
305  3.04  0.  0.
306  3.05  0.  0.
307  3.06  0.  0.
308  3.07  0.  0.
309  3.08  0.  0.
310  3.09  0.  0.
311  3.10  0.  0.
312  3.11  0.  0.
313  3.12  0.  0.
314  3.13  0.  0.
315  3.14  0.  0.
316  3.15  0.  0.
317  3.16  0.  0.
318  3.17  0.  0.
319  3.18  0.  0.
320  3.19  0.  0.
321  3.20  0.  0.
322  3.21  0.  0.
323  3.22  0.  0.
324  3.23  0.  0.
325  3.24  0.  0.
326  3.25  0.  0.
327  3.26  0.  0.
328  3.27  0.  0.
329  3.28  0.  0.
330  3.29  0.  0.
331  3.30  0.  0.
332  3.31  0.  0.
333  3.32  0.  0.
334  3.33  0.  0.
335  3.34  0.  0.
336  3.35  0.  0.
337  3.36  0.  0.
338  3.37  0.  0.
339  3.38  0.  0.
340  3.39  0.  0.
341  3.40  0.  0.
342  3.41  0.  0.
343  3.42  0.  0.
344  3.43  0.  0.
345  3.44  0.  0.
346  3.45  0.  0.
347  3.46  0.  0.
348  3.47  0.  0.
349  3.48  0.  0.
350  3.49  0.  0.
351  3.50  0.  0.
352  3.51  0.  0.
353  3.52  0.  0.
354  3.53  0.  0.
355  3.54  0.  0.
356  3.55  0.  0.
357  3.56  0.  0.
358  3.57  0.  0.
359  3.58  0.  0.
360  3.59  0.  0.
361  3.60  0.  0.
362  3.61  0.  0.
363  3.62  0.  0.
364  3.63  0.  0.
365  3.64  0.  0.
366  3.65  0.  0.
367  3.66  0.  0.
368  3.67  0.  0.
369  3.68  0.  0.
370  3.69  0.  0.
371  3.70  0.  0.
372  3.71  0.  0.
373  3.72  0.  0.
374  3.73  0.  0.
375  3.74  0.  0.
376  3.75  0.  0.
377  3.76  0.  0.
378  3.77  0.  0.
379  3.78  0.  0.
380  3.79  0.  0.
381  3.80  0.  0.
382  3.81  0.  0.
383  3.82  0.  0.
384  3.83  0.  0.
385  3.84  0.  0.
386  3.85  0.  0.
387  3.86  0.  0.
388  3.87  0.  0.
389  3.88  0.  0.
390  3.89  0.  0.
391  3.90  0.  0.
392  3.91  0.  0.
393  3.92  0.  0.
394  3.93  0.  0.
395  3.94  0.  0.
396  3.95  0.  0.
397  3.96  0.  0.
398  3.97  0.  0.
399  3.98  0.  0.
400  3.99  0.  0.
401  4.00  0.  0.
402  4.01  0.  0.
403  4.02  0.  0.
404  4.03  0.  0.
405  4.04  0.  0.
406  4.05  0.  0.
407  4.06  0.  0.
408  4.07  0.  0.
409  4.08  0.  0.
410  4.09  0.  0.
411  4.10  0.  0.
412  4.11  0.  0.
413  4.12  0.  0.
414  4.13  0.  0.
415  4.14  0.  0.
416  4.15  0.  0.
417  4.16  0.  0.
418  4.17  0.  0.
419  4.18  0.  0.
420  4.19  0.  0.
421  4.20  0.  0.
422  4.21  0.  0.
423  4.22  0.  0.
424  4.23  0.  0.
425  4.24  0.  0.
426  4.25  0.  0.
427  4.26  0.  0.
428  4.27  0.  0.
429  4.28  0.  0.
430  4.29  0.  0.
431  4.30  0.  0.
432  4.31  0.  0.
433  4.32  0.  0.
434  4.33  0.  0.
435  4.34  0.  0.
436  4.35  0.  0.
437  4.36  0.  0.
438  4.37  0.  0.
439  4.38  0.  0.
440  4.39  0.  0.
441  4.40  0.  0.
442  4.41  0.  0.
443  4.42  0.  0.
444  4.43  0.  0.
445  4.44  0.  0.
446  4.45  0.  0.
447  4.46  0.  0.
448  4.47  0.  0.
449  4.48  0.  0.
450  4.49  0.  0.
451  4.50  0.  0.
452  4.51  0.  0.
453  4.52  0.  0.
454  4.53  0.  0.
455  4.54  0.  0.
456  4.55  0.  0.
457  4.56  0.  0.
458  4.57  0.  0.
459  4.58  0.  0.
460  4.59  0.  0.
461  4.60  0.  0.
462  4.61  0.  0.
463  4.62  0.  0.
464  4.63  0.  0.
465  4.64  0.  0.
466  4.65  0.  0.
467  4.66  0.  0.
468  4.67  0.  0.
469  4.68  0.  0.
470  4.69  0.  0.
471  4.70  0.  0.
472  4.71  0.  0.
473  4.72  0.  0.
474  4.73  0.  0.
475  4.74  0.  0.
476  4.75  0.  0.
477  4.76  0.  0.
478  4.77  0.  0.
479  4.78  0.  0.
480  4.79  0.  0.
481  4.80  0.  0.
482  4.81  0.  0.
483  4.82  0.  0.
484  4.83  0.  0.
485  4.84  0.  0.
486  4.85  0.  0.
487  4.86  0.  0.
488  4.87  0.  0.
489  4.88  0.  0.
490  4.89  0.  0.
491  4.90  0.  0.
492  4.91  0.  0.
493  4.92  0.  0.
494  4.93  0.  0.
495  4.94  0.  0.
496  4.95  0.  0.
497  4.96  0.  0.
498  4.97  0.  0.
499  4.98  0.  0.
500  4.99  0.  0.
501  5.00  0.  0.
502  5.01  0.  0.
503  5.02  0.  0.
504  5.03  0.  0.
505  5.04  0.  0.
506  5.05  0.  0.
507  5.06  0.  0.
508  5.07  0.  0.
509  5.08  0.  0.
510  5.09  0.  0.
511  5.10  0.  0.
512  5.11  0.  0.
513  5.12  0.  0.
514  5.13  0.  0.
515  5.14  0.  0.
516  5.15  0.  0.
517  5.16  0.  0.
518  5.17  0.  0.
519  5.18  0.  0.
520  5.19  0.  0.
521  5.20  0.  0.
522  5.21  0.  0.
523  5.22  0.  0.
524  5.23  0.  0.
525  5.24  0.  0.
526  5.25  0.  0.
527  5.26  0.  0.
528  5.27  0.  0.
529  5.28  0.  0.
530  5.29  0.  0.
531  5.30  0.  0.
532  5.31  0.  0.
533  5.32  0.  0.
534  5.33  0.  0.
535  5.34  0.  0.
536  5.35  0.  0.
537  5.36  0.  0.
538  5.37  0.  0.
539  5.38  0.  0.
540  5.39  0.  0.
541  5.40  0.  0.
542  5.41  0.  0.
543  5.42  0.  0.
544  5.43  0.  0.
545  5.44  0.  0.
546  5.45  0.  0.
547  5.46  0.  0.
548  5.47  0.  0.
549  5.48  0.  0.
550  5.49  0.  0.
551  5.50  0.  0.
552  5.51  0.  0.
553  5.52  0.  0.
554  5.53  0.  0.
555  5.54  0.  0.
556  5.55  0.  0.
557  5.56  0.  0.
558  5.57  0.  0.
559  5.58  0.  0.
560  5.59  0.  0.
561  5.60  0.  0.
562  5.61  0.  0.
563  5.62  0.  0.
564  5.63  0.  0.
565  5.64  0.  0.
566  5.65  0.  0.
567  5.66  0.  0.
568  5.67  0.  0.
569  5.68  0.  0.
570  5.69  0.  0.
571  5.70  0.  0.
572  5.71  0.  0.
573  5.72  0.  0.
574  5.73  0.  0.
575  5.74  0.  0.
576  5.75  0.  0.
577  5.76  0.  0.
578  5.77  0.  0.
579  5.78  0.  0.
580  5.79  0.  0.
581  5.80  0.  0.
582  5.81  0.  0.
583  5.82  0.  0.
584  5.83  0.  0.
585  5.84  0.  0.
586  5.85  0.  0.
587  5.86  0.  0.
588  5.87  0.  0.
589  5.88  0.  0.
590  5.89  0.  0.
591  5.90  0.  0.
592  5.91  0.  0.
593  5.92  0.  0.
594  5.93  0.  0.
595  5.94  0.  0.
596  5.95  0.  0.
597  5.96  0.  0.
598  5.97  0.  0.
599  5.98  0.  0.
600  5.99  0.  0.
1                         5.1438657945700E+00  1.7110394206508E-01
1  0.0000000000000E+00  5.1860996330699E-09 -7.5554045908532E-08
2  1.0000000000000E-02  1.3380046965829E-03 -6.1527786963345E-03
3  2.0000000000000E-02  5.3414740797913E-03 -2.4484101670031E-02
4  3.0000000000000E-02  1.1978938588368E-02 -5.4615322433255E-02
5  4.0000000000000E-02  2.1198494444971E-02 -9.5923295644915E-02
6  5.0000000000000E-02  3.2928611322314E-02 -1.4755212192733E-01
7  6.0000000000000E-02  4.7079242137014E-02 -2.0842928670307E-01
8  7.0000000000000E-02  6.3543214502597E-02 -2.7728589580079E-01
9  8.0000000000000E-02  8.2197878187007E-02 -3.5268063502485E-01
10  9.0000000000000E-02  1.0290697821334E-01 -4.3302701212309E-01
11  1.0000000000000E-01  1.2552271910377E-01 -5.1662337888060E-01
12  1.1000000000000E-01  1.4988798227301E-01 -6.0168517951947E-01
13  1.2000000000000E-01  1.7583865579552E-01 -6.8637883014362E-01
14  1.3000000000000E-01  2.0320603375140E-01 -7.6885660339029E-01
15  1.4000000000000E-01  2.3181924113931E-01 -8.4729187330385E-01
16  1.5000000000000E-01  2.6150763995243E-01 -9.1991406808425E-01
17  1.6000000000000E-01  2.9210317245574E-01 -9.8504268293234E-01
18  1.7000000000000E-01  3.2344259896944E-01 -1.0411197216340E+00
19  1.8000000000000E-01  3.5536958953451E-01 -1.0867399635141E+00
20  1.9000000000000E-01  3.8773663167154E-01 -1.1206784914457E+00
21  2.0000000000000E-01  4.2040671999292E-01 -1.1419149660179E+00
22  2.1000000000000E-01  4.5325479762423E-01 -1.1496541898605E+00
23  2.2000000000000E-01  4.8616892415690E-01 -1.1433425734317E+00
24  2.3000000000000E-01  5.1905115010127E-01 -1.1226801880742E+00
25  2.4000000000000E-01  5.5181808343971E-01 -1.0876281724942E+00
26  2.5000000000000E-01  5.8440113978941E-01 -1.0384113435539E+00
27  2.6000000000000E-01  6.1674647376178E-01 -9.7551594985470E-01
28  2.7000000000000E-01  6.4881459523771E-01 -8.9968259543373E-01
29  2.8000000000000E-01  6.8057968034976E-01 -8.1189444937978E-01
30  2.9000000000000E-01  7.1202859285858E-01 -7.1336094369105E-01
31  3.0000000000000E-01  7.4315963722223E-01 -6.0549724465593E-01
32  3.1000000000000E-01  7.7398106987474E-01 -4.8989986093229E-01
33  3.2000000000000E-01  8.0450939995770E-01 -3.6831882289754E-01
34  3.3000000000000E-01  8.3476751489362E-01 -2.4262693143220E-01
35  3.4000000000000E-01  8.6478266967348E-01 -1.1478662891141E-01
36  3.5000000000000E-01  8.9458438148591E-01  1.3184910195404E-02
37  3.6000000000000E-01  9.2420227328669E-01  1.3925183790925E-01
38  3.7000000000000E-01  9.5366391105638E-01  2.6139618694486E-01
39  3.8000000000000E-01  9.8299267979504E-01  3.7765425648723E-01
40  3.9000000000000E-01  1.0122057427485E+00  4.8615216710188E-01
41  4.0000000000000E-01  1.0413121269571E+00  5.8513993602607E-01
42  4.1000000000000E-01  1.0703109759894E+00  6.7302344962211E-01
43  4.2000000000000E-01  1.0991900077060E+00  7.4839374671296E-01
44  4.3000000000000E-01  1.1279242111512E+00  8.1005307420790E-01
45  4.4000000000000E-01  1.1564748122524E+00  8.5703723401121E-01
46  4.5000000000000E-01  1.1847885330078E+00  8.8863380665747E-01
47  4.6000000000000E-01  1.2127971633470E+00  9.0439591123222E-01
48  4.7000000000000E-01  1.2404174589578E+00  9.0415124158289E-01
49  4.8000000000000E-01  1.2675513722025E+00  8.8800620413696E-01
50  4.9000000000000E-01  1.2940866168999E+00  8.5634507128282E-01
51  5.0000000000000E-01  1.3198975613567E+00  8.0982415461127E-01
52  5.1000000000000E-01  1.3448464377021E+00  7.4936109272462E-01
53  5.2000000000000E-01  1.3687848494423E+00  6.7611943713857E-01
54  5.3000000000000E-01  1.3915555533110E+00  5.9148880540842E-01
55  5.4000000000000E-01  1.4129944860709E+00  4.9706095143707E-01
56  5.5000000000000E-01  1.4329330020155E+00  3.9460217748089E-01
57  5.6000000000000E-01  1.4512002826243E+00  2.8602257929385E-01
58  5.7000000000000E-01  1.4676258762290E+00  1.7334267390123E-01
59  5.8000000000000E-01  1.4820423227111E+00  5.8658007603024E-02
60  5.9000000000000E-01  1.4942878162468E+00 -5.5897620923859E-02
61  6.0000000000000E-01  1.5042088579632E+00 -1.6818966181689E-01
62  6.1000000000000E-01  1.5116628501183E+00 -2.7612036518690E-01
63  6.2000000000000E-01  1.5165205840576E+00 -3.7766570648151E-01
64  6.3000000000000E-01  1.5186685757351E+00 -4.7091102117595E-01
65  6.4000000000000E-01  1.5180112049868E+00 -5.5408470693566E-01
66  6.5000000000000E-01  1.5144726179719E+00 -6.2558938614182E-01
67  6.6000000000000E-01  1.5079983561925E+00 -6.8402996751481E-01
68  6.7000000000000E-01  1.4985566801985E+00 -7.2823810168422E-01
69  6.8000000000000E-01  1.4861395613909E+00 -7.5729259090582E-01
70  6.9000000000000E-01  1.4707633211668E+00 -7.7053538653605E-01
71  7.0000000000000E-01  1.4524689028834E+00 -7.6758288798234E-01
72  7.1000000000000E-01  1.4313217686548E+00 -7.4833234220200E-01
73  7.2000000000000E-01  1.4074114197063E+00 -7.1296323183974E-01
74  7.3000000000000E-01  1.3808505457727E+00 -6.6193363115127E-01
75  7.4000000000000E-01  1.3517738157148E+00 -5.9597160027683E-01
76  7.5000000000000E-01  1.3203363280199E+00 -5.1606177851612E-01
77  7.6000000000000E-01  1.2867117460196E+00 -4.2342742437082E-01
78  7.7000000000000E-01  1.2510901483903E+00 -3.1950823263947E-01
79  7.8000000000000E-01  1.2136756306911E+00 -2.0593433526730E-01
80  7.9000000000000E-01  1.1746836982373E+00 -8.4496961551009E-02
81  8.0000000000000E-01  1.1343384944220E+00  4.2883706579363E-02
82  8.1000000000000E-01  1.0928699116119E+00  1.7419289825085E-01
83  8.2000000000000E-01  1.0505106338939E+00  3.0735721093264E-01
84  8.3000000000000E-01  1.0074931621959E+00  4.4028150804246E-01
85  8.4000000000000E-01  9.6404687262780E-01  5.7088608772915E-01
86  8.5000000000000E-01  9.2039515826795E-01  6.9714345013135E-01
87  8.6000000000000E-01  8.7675270308294E-01  8.1711399920869E-01
88  8.7000000000000E-01  8.3332293422203E-01  9.2898003622218E-01
89  8.8000000000000E-01  7.9029569563476E-01  1.0310774346870E+00
90  8.9000000000000E-01  7.4784518186949E-01  1.1219244305066E+00
91  9.0000000000000E-01  7.0612816610270E-01  1.2002470151940E+00
92  9.1000000000000E-01  6.6528255101338E-01  1.2650004835515E+00
93  9.2000000000000E-01  6.2542626515336E-01  1.3153867587321E+00
94  9.3000000000000E-01  5.8665652108662E-01  1.3508671958841E+00
95  9.4000000000000E-01  5.4904944489675E-01  1.3711706491114E+00
96  9.5000000000000E-01  5.1266007981844E-01  1.3762966737083E+00
97  9.6000000000000E-01  4.7752275986311E-01  1.3665138249139E+00
98  9.7000000000000E-01  4.4365184251267E-01  1.3423531040986E+00
99  9.8000000000000E-01  4.1104278297343E-01  1.3045966917021E+00
100  9.9000000000000E-01  3.7967352624391E-01  1.2542621916937E+00
101  1.0000000000000E+00  3.4950618746383E-01  1.1925826933419E+00
102  1.0100000000000E+00  3.2048898579595E-01  1.1209830310651E+00
103  1.0200000000000E+00  2.9255839253875E-01  1.0410526907751E+00
104  1.0300000000000E+00  2.6564145036204E-01  9.5451587021202E-01
105  1.0400000000000E+00  2.3965821757165E-01  8.6319925022018E-01
106  1.0500000000000E+00  2.1452428919894E-01  7.6899807283991E-01
107  1.0600000000000E+00  1.9015334550928E-01  6.7384114989927E-01
108  1.0700000000000E+00  1.6645967825959E-01  5.7965544194485E-01
109  1.0800000000000E+00  1.4336064569990E-01  4.8833085170434E-01
110  1.0900000000000E+00  1.2077900890711E-01  4.0168586874593E-01
111  1.1000000000000E+00  9.8645104510116E-02  3.2143468291520E-01
112  1.1100000000000E+00  7.6898812182374E-02  2.4915635381289E-01
113  1.1200000000000E+00  5.5491279360521E-02  1.8626658278779E-01
114  1.1300000000000E+00  3.4386370423206E-02  1.3399258345053E-01
115  1.1400000000000E+00  1.3561812940098E-02  9.3351487563688E-02
116  1.1500000000000E+00 -6.9899805357622E-03  6.5132656621486E-02
117  1.1600000000000E+00 -2.7261430409376E-02  4.9884196652845E-02
118  1.1700000000000E+00 -4.7229656491090E-02  4.7903896314633E-02
119  1.1800000000000E+00 -6.6856695086240E-02  5.9234727677777E-02
120  1.1900000000000E+00 -8.6090062203353E-02  8.3664966525897E-02
121  1.2000000000000E+00 -1.0486365184925E-01  1.2073290668093E-01
122  1.2100000000000E+00 -1.2309895206327E-01  1.6973606130157E-01
123  1.2200000000000E+00 -1.4070655544524E-01  2.2974466617785E-01
124  1.2300000000000E+00 -1.5758793544947E-01  2.9961922569144E-01
125  1.2400000000000E+00 -1.7363745483936E-01  3.7803177381149E-01
126  1.2500000000000E+00 -1.8874456847107E-01  4.6349046091350E-01
127  1.2600000000000E+00 -2.0279617906430E-01  5.5436702315201E-01
128  1.2700000000000E+00 -2.1567910192636E-01  6.4892664612338E-01
129  1.2800000000000E+00 -2.2728259272106E-01  7.4535969861293E-01
130  1.2900000000000E+00 -2.3750089136963E-01  8.4181478613494E-01
131  1.3000000000000E+00 -2.4623573504110E-01  9.3643255802954E-01
132  1.3100000000000E+00 -2.5339879391535E-01  1.0273796959056E+00
133  1.3200000000000E+00 -2.5891398497572E-01  1.1128825152435E+00
134  1.3300000000000E+00 -2.6271962145423E-01  1.1912596255567E+00