Gd    ONCVPSP-4.0.1  r_core=   2.00348   1.60569   1.90986   1.60569
64.0000     18.0000      250626    zatom,zion,pspd
8      11   3     4   600     0    pspcod,pspxc,lmax,lloc,mmax,r2well
5.99000000 44.00000000  0.00000000    rchrg fchrg qchrg
2     2     2     2     0    nproj
1     1           extension_switch
0                         8.3038156411799E+00  3.8894854326154E-01
1  0.0000000000000E+00  4.9817538982921E-11 -2.7303170835324E-10
2  1.0000000000000E-02  4.8493662071263E-02 -1.9625568413122E-02
3  2.0000000000000E-02  9.6941304760069E-02 -3.9237073147098E-02
4  3.0000000000000E-02  1.4529683618234E-01 -5.8819914884011E-02
5  4.0000000000000E-02  1.9351402081910E-01 -7.8358430027324E-02
6  5.0000000000000E-02  2.4154641110709E-01 -9.7835375989899E-02
7  6.0000000000000E-02  2.8934728308364E-01 -1.1723143719974E-01
8  7.0000000000000E-02  3.3686957737806E-01 -1.3652475840587E-01
9  8.0000000000000E-02  3.8406584679231E-01 -1.5569051159364E-01
10  9.0000000000000E-02  4.3088821165186E-01 -1.7470050248154E-01
11  1.0000000000000E-01  4.7728832403510E-01 -1.9352282217401E-01
12  1.1000000000000E-01  5.2321734190630E-01 -2.1212154909048E-01
13  1.2000000000000E-01  5.6862591408404E-01 -2.3045650578303E-01
14  1.3000000000000E-01  6.1346417687490E-01 -2.4848307469999E-01
15  1.4000000000000E-01  6.5768176309169E-01 -2.6615207635422E-01
16  1.5000000000000E-01  7.0122782405792E-01 -2.8340971271835E-01
17  1.6000000000000E-01  7.4405106507635E-01 -3.0019757800168E-01
18  1.7000000000000E-01  7.8609979471004E-01 -3.1645273827005E-01
19  1.8000000000000E-01  8.2732198809135E-01 -3.3210788065717E-01
20  1.9000000000000E-01  8.6766536433774E-01 -3.4709153219096E-01
21  2.0000000000000E-01  9.0707747801517E-01 -3.6132834752742E-01
22  2.1000000000000E-01  9.4550582445111E-01 -3.7473946415466E-01
23  2.2000000000000E-01  9.8289795856071E-01 -3.8724292290733E-01
24  2.3000000000000E-01  1.0192016267132E+00 -3.9875415092506E-01
25  2.4000000000000E-01  1.0543649110317E+00 -4.0918650350133E-01
26  2.5000000000000E-01  1.0883363853897E+00 -4.1845186061176E-01
27  2.6000000000000E-01  1.1210652822432E+00 -4.2646127328682E-01
28  2.7000000000000E-01  1.1525016693192E+00 -4.3312565440968E-01
29  2.8000000000000E-01  1.1825966350688E+00 -4.3835650798281E-01
30  2.9000000000000E-01  1.2113024816920E+00 -4.4206669041976E-01
31  3.0000000000000E-01  1.2385729244462E+00 -4.4417119698903E-01
32  3.1000000000000E-01  1.2643632958670E+00 -4.4458796616627E-01
33  3.2000000000000E-01  1.2886307534561E+00 -4.4323869434659E-01
34  3.3000000000000E-01  1.3113344893309E+00 -4.4004965313077E-01
35  3.4000000000000E-01  1.3324359402773E+00 -4.3495250123250E-01
36  3.5000000000000E-01  1.3518989966145E+00 -4.2788508295963E-01
37  3.6000000000000E-01  1.3696902082509E+00 -4.1879220520193E-01
38  3.7000000000000E-01  1.3857789863026E+00 -4.0762638491342E-01
39  3.8000000000000E-01  1.4001377986453E+00 -3.9434855920678E-01
40  3.9000000000000E-01  1.4127423577867E+00 -3.7892875038283E-01
41  4.0000000000000E-01  1.4235717994734E+00 -3.6134667849540E-01
42  4.1000000000000E-01  1.4326088504897E+00 -3.4159231440254E-01
43  4.2000000000000E-01  1.4398399841574E+00 -3.1966636667346E-01
44  4.3000000000000E-01  1.4452555621135E+00 -2.9558069620631E-01
45  4.4000000000000E-01  1.4488499610223E+00 -2.6935865295743E-01
46  4.5000000000000E-01  1.4506216829655E+00 -2.4103532979019E-01
47  4.6000000000000E-01  1.4505734483573E+00 -2.1065772910775E-01
48  4.7000000000000E-01  1.4487122703412E+00 -1.7828483864087E-01
49  4.8000000000000E-01  1.4450495097438E+00 -1.4398761351014E-01
50  4.9000000000000E-01  1.4396009097918E+00 -1.0784886246404E-01
51  5.0000000000000E-01  1.4323866099296E+00 -6.9963037008561E-02
52  5.1000000000000E-01  1.4234311382210E+00 -3.0435922977423E-02
53  5.2000000000000E-01  1.4127633819617E+00  1.0615765057161E-02
54  5.3000000000000E-01  1.4004165362806E+00  5.3064885276312E-02
55  5.4000000000000E-01  1.3864280306642E+00  9.6774463893438E-02
56  5.5000000000000E-01  1.3708394334892E+00  1.4159838125410E-01
57  5.6000000000000E-01  1.3536963348082E+00  1.8738214495348E-01
58  5.7000000000000E-01  1.3350482077860E+00  2.3396374535379E-01
59  5.8000000000000E-01  1.3149482493386E+00  2.8117458809782E-01
60  5.9000000000000E-01  1.2934532006769E+00  3.2884049746414E-01
61  6.0000000000000E-01  1.2706231486025E+00  3.7678278370279E-01
62  6.1000000000000E-01  1.2465213085455E+00  4.2481936683110E-01
63  6.2000000000000E-01  1.2212137904669E+00  4.7276594876523E-01
64  6.3000000000000E-01  1.1947693488773E+00  5.2043722511975E-01
65  6.4000000000000E-01  1.1672591183416E+00  5.6764812752893E-01
66  6.5000000000000E-01  1.1387563359491E+00  6.1421508693497E-01
67  6.6000000000000E-01  1.1093360523303E+00  6.5995730795292E-01
68  6.7000000000000E-01  1.0790748328892E+00  7.0469804416389E-01
69  6.8000000000000E-01  1.0480504509998E+00  7.4826586400988E-01
70  6.9000000000000E-01  1.0163415749807E+00  7.9049589686420E-01
71  7.0000000000000E-01  9.8402745071787E-01  8.3123104883943E-01
72  7.1000000000000E-01  9.5118758184505E-01  8.7032317796039E-01
73  7.2000000000000E-01  9.1790140942306E-01  9.0763421848336E-01
74  7.3000000000000E-01  8.8424799307276E-01  9.4303724437592E-01
75  7.4000000000000E-01  8.5030569552066E-01  9.7641746228719E-01
76  7.5000000000000E-01  8.1615187250597E-01  1.0076731247327E+00
77  7.6000000000000E-01  7.8186256997397E-01  1.0367163546895E+00
78  7.7000000000000E-01  7.4751223044575E-01  1.0634738733392E+00
79  7.8000000000000E-01  7.1317341040483E-01  1.0878876233142E+00
80  7.9000000000000E-01  6.7891651048148E-01  1.1099152804768E+00
81  8.0000000000000E-01  6.4480952014255E-01  1.1295306480046E+00
82  8.1000000000000E-01  6.1091777851110E-01  1.1467239273489E+00
83  8.2000000000000E-01  5.7730375284573E-01  1.1615018614802E+00
84  8.3000000000000E-01  5.4402683610456E-01  1.1738877467243E+00
85  8.4000000000000E-01  5.1114316490467E-01  1.1839213104230E+00
86  8.5000000000000E-01  4.7870545906435E-01  1.1916584526160E+00
87  8.6000000000000E-01  4.4676288378409E-01  1.1971708509286E+00
88  8.7000000000000E-01  4.1536093538285E-01  1.2005454288634E+00
89  8.8000000000000E-01  3.8454135136043E-01  1.2018836887125E+00
90  8.9000000000000E-01  3.5434204540403E-01  1.2013009113480E+00
91  9.0000000000000E-01  3.2479706779999E-01  1.1989252261785E+00
92  9.1000000000000E-01  2.9593659154867E-01  1.1948965555943E+00
93  9.2000000000000E-01  2.6778692431446E-01  1.1893654392496E+00
94  9.3000000000000E-01  2.4037054617267E-01  1.1824917445392E+00
95  9.4000000000000E-01  2.1370617294290E-01  1.1744432706187E+00
96  9.5000000000000E-01  1.8780884472370E-01  1.1653942542879E+00
97  9.6000000000000E-01  1.6269003906776E-01  1.1555237869934E+00
98  9.7000000000000E-01  1.3835780806011E-01  1.1450141531174E+00
99  9.8000000000000E-01  1.1481693838511E-01  1.1340491005915E+00
100  9.9000000000000E-01  9.2069133292224E-02  1.1228120557040E+00
101  1.0000000000000E+00  7.0113215195358E-02  1.1114842947597E+00
102  1.0100000000000E+00  4.8945347467255E-02  1.1002430859954E+00
103  1.0200000000000E+00  2.8559273819975E-02  1.0892598158448E+00
104  1.0300000000000E+00  8.9465734945189E-03  1.0786981142885E+00
105  1.0400000000000E+00 -9.9030696812650E-03  1.0687119946110E+00
106  1.0500000000000E+00 -2.8001586466950E-02  1.0594440234135E+00
107  1.0600000000000E+00 -4.5362231870649E-02  1.0510235371955E+00
108  1.0700000000000E+00 -6.1999287700131E-02  1.0435649222225E+00
109  1.0800000000000E+00 -7.7927760548207E-02  1.0371659747258E+00
110  1.0900000000000E+00 -9.3163077890206E-02  1.0319063587430E+00
111  1.1000000000000E+00 -1.0772078509562E-01  1.0278461790891E+00
112  1.1100000000000E+00 -1.2161624627020E-01  1.0250246870499E+00
113  1.1200000000000E+00 -1.3486435194713E-01  1.0234591364000E+00
114  1.1300000000000E+00 -1.4747923673557E-01  1.0231438072660E+00
115  1.1400000000000E+00 -1.5947401010950E-01  1.0240492151708E+00
116  1.1500000000000E+00 -1.7086050357819E-01  1.0261215222952E+00
117  1.1600000000000E+00 -1.8164903751918E-01  1.0292821675801E+00
118  1.1700000000000E+00 -1.9184821097422E-01  1.0334277317364E+00
119  1.1800000000000E+00 -2.0146471770445E-01  1.0384300525406E+00
120  1.1900000000000E+00 -2.1050319177174E-01  1.0441366049355E+00
121  1.2000000000000E+00 -2.1896608585551E-01  1.0503711594343E+00
122  1.2100000000000E+00 -2.2685358542461E-01  1.0569347311011E+00
123  1.2200000000000E+00 -2.3416356176067E-01  1.0636068299619E+00
124  1.2300000000000E+00 -2.4089156666639E-01  1.0701470220372E+00
125  1.2400000000000E+00 -2.4703087148854E-01  1.0762968082815E+00
126  1.2500000000000E+00 -2.5257255283598E-01  1.0817818265362E+00
127  1.2600000000000E+00 -2.5750562707147E-01  1.0863143791085E+00
128  1.2700000000000E+00 -2.6181723530235E-01  1.0895962857846E+00
129  1.2800000000000E+00 -2.6549288018061E-01  1.0913220589145E+00
130  1.2900000000000E+00 -2.6851671534283E-01  1.0911823936348E+00
131  1.3000000000000E+00 -2.7087188777265E-01  1.0888679623234E+00
132  1.3100000000000E+00 -2.7254093274486E-01  1.0840734979361E+00
133  1.3200000000000E+00 -2.7350622030275E-01  1.0765021459267E+00
134  1.3300000000000E+00 -2.7375045142780E-01  1.0658700589775E+00
135  1.3400000000000E+00 -2.7325720117706E-01  1.0519112027318E+00
136  1.3500000000000E+00 -2.7201150507146E-01  1.0343823340140E+00
137  1.3600000000000E+00 -2.7000048392680E-01  1.0130681056982E+00
138  1.3700000000000E+00 -2.6721400110568E-01  9.8778624429571E-01
139  1.3800000000000E+00 -2.6364534484294E-01  9.5839273754942E-01
140  1.3900000000000E+00 -2.5929192682508E-01  9.2478695959827E-01
141  1.4000000000000E+00 -2.5415598660834E-01  8.8691665078742E-01
142  1.4100000000000E+00 -2.4824528970665E-01  8.4478265769527E-01
143  1.4200000000000E+00 -2.4157380527594E-01  7.9844332648807E-01
144  1.4300000000000E+00 -2.3416234724846E-01  7.4801842917166E-01
145  1.4400000000000E+00 -2.2603916051646E-01  6.9369248760369E-01
146  1.4500000000000E+00 -2.1724043133196E-01  6.3571734427599E-01
147  1.4600000000000E+00 -2.0781069845311E-01  5.7441381170390E-01
148  1.4700000000000E+00 -1.9780313871869E-01  5.1017221370889E-01
149  1.4800000000000E+00 -1.8727969767531E-01  4.4345161197892E-01
150  1.4900000000000E+00 -1.7631103257129E-01  3.7477748973561E-01
151  1.5000000000000E+00 -1.6497623148576E-01  3.0473764124838E-01
152  1.5100000000000E+00 -1.5336226855209E-01  2.3397599112209E-01
153  1.5200000000000E+00 -1.4156315114655E-01  1.6318404064163E-01
154  1.5300000000000E+00 -1.2967871053394E-01  9.3089609907393E-02
155  1.5400000000000E+00 -1.1781298277568E-01  2.4442513926427E-02
156  1.5500000000000E+00 -1.0607212169318E-01 -4.2003221890773E-02
157  1.5600000000000E+00 -9.4561780321201E-02 -1.0551103636795E-01
158  1.5700000000000E+00 -8.3383891587331E-02 -1.6538786410793E-01
159  1.5800000000000E+00 -7.2632770655157E-02 -2.2101504907069E-01
160  1.5900000000000E+00 -6.2390454793927E-02 -2.7188470638828E-01
161  1.6000000000000E+00 -5.2721340801318E-02 -3.1764088698366E-01
162  1.6100000000000E+00 -4.3665203685054E-02 -3.5813306733323E-01
163  1.6200000000000E+00 -3.5236897807856E-02 -3.9341202543019E-01
164  1.6300000000000E+00 -2.7439868934344E-02 -4.2361109966126E-01
165  1.6400000000000E+00 -2.0274342185231E-02 -4.4887625239429E-01
166  1.6500000000000E+00 -1.3736966424224E-02 -4.6936934716487E-01
167  1.6600000000000E+00 -7.8210271175452E-03 -4.8526660993692E-01
168  1.6700000000000E+00 -2.5165545662455E-03 -4.9675806015294E-01
169  1.6800000000000E+00  2.1895519276345E-03 -5.0404686431887E-01
170  1.6900000000000E+00  6.3133786916876E-03 -5.0734856764687E-01
171  1.7000000000000E+00  9.8738348655187E-03 -5.0689023291655E-01
172  1.7100000000000E+00  1.2892473514877E-02 -5.0290949499340E-01
173  1.7200000000000E+00  1.5393296612221E-02 -4.9565352732972E-01
174  1.7300000000000E+00  1.7402545350606E-02 -4.8537792902919E-01
175  1.7400000000000E+00  1.8948476765400E-02 -4.7234553676017E-01
176  1.7500000000000E+00  2.0061127895369E-02 -4.5682516767045E-01
177  1.7600000000000E+00  2.0772068808081E-02 -4.3909030000157E-01
178  1.7700000000000E+00  2.1114145958853E-02 -4.1941769907331E-01
179  1.7800000000000E+00  2.1121217414771E-02 -3.9808599665612E-01
180  1.7900000000000E+00  2.0827881562128E-02 -3.7537423231613E-01
181  1.8000000000000E+00  2.0269201021327E-02 -3.5156036605570E-01
182  1.8100000000000E+00  1.9480423512489E-02 -3.2691977165875E-01
183  1.8200000000000E+00  1.8496701516581E-02 -3.0172372090424E-01
184  1.8300000000000E+00  1.7352812552046E-02 -2.7623786861212E-01
185  1.8400000000000E+00  1.6082881948089E-02 -2.5072074897829E-01
186  1.8500000000000E+00  1.4720110013354E-02 -2.2542229383171E-01
187  1.8600000000000E+00  1.3296505439984E-02 -2.0058238307017E-01
188  1.8700000000000E+00  1.1842629954485E-02 -1.7642945564364E-01
189  1.8800000000000E+00  1.0387324806335E-02 -1.5317901490252E-01
190  1.8900000000000E+00  8.9575463776283E-03 -1.3103274296140E-01
191  1.9000000000000E+00  7.5780558305171E-03 -1.1017681384939E-01
192  1.9100000000000E+00  6.2697429106743E-03 -9.0772375859685E-02
193  1.9200000000000E+00  5.0487663047657E-03 -7.2950519002612E-02
194  1.9300000000000E+00  3.9337162240840E-03 -5.6853053483176E-02
195  1.9400000000000E+00  2.9406027037393E-03 -4.2604465222711E-02
196  1.9500000000000E+00  2.0820304795714E-03 -3.0307252944785E-02
197  1.9600000000000E+00  1.3672455111487E-03 -2.0042159010723E-02
198  1.9700000000000E+00  8.0212813942799E-04 -1.1869223545734E-02
199  1.9800000000000E+00  3.8849226414278E-04 -5.8172820259490E-03
200  1.9900000000000E+00  1.2497781651421E-04 -1.8985953007138E-03
201  2.0000000000000E+00  1.2624550518543E-05 -1.9547270761494E-04
202  2.0100000000000E+00 -4.2066487918177E-06  6.5629417770994E-05
203  2.0200000000000E+00  1.4013603521989E-06 -2.1622172905135E-05
204  2.03 -0.  0.
205  2.04 -0. -0.
206  2.05 -0. -0.
207  2.06  0.  0.
208  2.07  0.  0.
209  2.08  0.  0.
210  2.09  0.  0.
211  2.10  0.  0.
212  2.11  0.  0.
213  2.12  0.  0.
214  2.13  0.  0.
215  2.14  0.  0.
216  2.15  0.  0.
217  2.16  0.  0.
218  2.17  0.  0.
219  2.18  0.  0.
220  2.19  0.  0.
221  2.20  0.  0.
222  2.21  0.  0.
223  2.22  0.  0.
224  2.23  0.  0.
225  2.24  0.  0.
226  2.25  0.  0.
227  2.26  0.  0.
228  2.27  0.  0.
229  2.28  0.  0.
230  2.29  0.  0.
231  2.30  0.  0.
232  2.31  0.  0.
233  2.32  0.  0.
234  2.33  0.  0.
235  2.34  0.  0.
236  2.35  0.  0.
237  2.36  0.  0.
238  2.37  0.  0.
239  2.38  0.  0.
240  2.39  0.  0.
241  2.40  0.  0.
242  2.41  0.  0.
243  2.42  0.  0.
244  2.43  0.  0.
245  2.44  0.  0.
246  2.45  0.  0.
247  2.46  0.  0.
248  2.47  0.  0.
249  2.48  0.  0.
250  2.49  0.  0.
251  2.50  0.  0.
252  2.51  0.  0.
253  2.52  0.  0.
254  2.53  0.  0.
255  2.54  0.  0.
256  2.55  0.  0.
257  2.56  0.  0.
258  2.57  0.  0.
259  2.58  0.  0.
260  2.59  0.  0.
261  2.60  0.  0.
262  2.61  0.  0.
263  2.62  0.  0.
264  2.63  0.  0.
265  2.64  0.  0.
266  2.65  0.  0.
267  2.66  0.  0.
268  2.67  0.  0.
269  2.68  0.  0.
270  2.69  0.  0.
271  2.70  0.  0.
272  2.71  0.  0.
273  2.72  0.  0.
274  2.73  0.  0.
275  2.74  0.  0.
276  2.75  0.  0.
277  2.76  0.  0.
278  2.77  0.  0.
279  2.78  0.  0.
280  2.79  0.  0.
281  2.80  0.  0.
282  2.81  0.  0.
283  2.82  0.  0.
284  2.83  0.  0.
285  2.84  0.  0.
286  2.85  0.  0.
287  2.86  0.  0.
288  2.87  0.  0.
289  2.88  0.  0.
290  2.89  0.  0.
291  2.90  0.  0.
292  2.91  0.  0.
293  2.92  0.  0.
294  2.93  0.  0.
295  2.94  0.  0.
296  2.95  0.  0.
297  2.96  0.  0.
298  2.97  0.  0.
299  2.98  0.  0.
300  2.99  0.  0.
301  3.00  0.  0.
302  3.01  0.  0.
303  3.02  0.  0.
304  3.03  0.  0.
305  3.04  0.  0.
306  3.05  0.  0.
307  3.06  0.  0.
308  3.07  0.  0.
309  3.08  0.  0.
310  3.09  0.  0.
311  3.10  0.  0.
312  3.11  0.  0.
313  3.12  0.  0.
314  3.13  0.  0.
315  3.14  0.  0.
316  3.15  0.  0.
317  3.16  0.  0.
318  3.17  0.  0.
319  3.18  0.  0.
320  3.19  0.  0.
321  3.20  0.  0.
322  3.21  0.  0.
323  3.22  0.  0.
324  3.23  0.  0.
325  3.24  0.  0.
326  3.25  0.  0.
327  3.26  0.  0.
328  3.27  0.  0.
329  3.28  0.  0.
330  3.29  0.  0.
331  3.30  0.  0.
332  3.31  0.  0.
333  3.32  0.  0.
334  3.33  0.  0.
335  3.34  0.  0.
336  3.35  0.  0.
337  3.36  0.  0.
338  3.37  0.  0.
339  3.38  0.  0.
340  3.39  0.  0.
341  3.40  0.  0.
342  3.41  0.  0.
343  3.42  0.  0.
344  3.43  0.  0.
345  3.44  0.  0.
346  3.45  0.  0.
347  3.46  0.  0.
348  3.47  0.  0.
349  3.48  0.  0.
350  3.49  0.  0.
351  3.50  0.  0.
352  3.51  0.  0.
353  3.52  0.  0.
354  3.53  0.  0.
355  3.54  0.  0.
356  3.55  0.  0.
357  3.56  0.  0.
358  3.57  0.  0.
359  3.58  0.  0.
360  3.59  0.  0.
361  3.60  0.  0.
362  3.61  0.  0.
363  3.62  0.  0.
364  3.63  0.  0.
365  3.64  0.  0.
366  3.65  0.  0.
367  3.66  0.  0.
368  3.67  0.  0.
369  3.68  0.  0.
370  3.69  0.  0.
371  3.70  0.  0.
372  3.71  0.  0.
373  3.72  0.  0.
374  3.73  0.  0.
375  3.74  0.  0.
376  3.75  0.  0.
377  3.76  0.  0.
378  3.77  0.  0.
379  3.78  0.  0.
380  3.79  0.  0.
381  3.80  0.  0.
382  3.81  0.  0.
383  3.82  0.  0.
384  3.83  0.  0.
385  3.84  0.  0.
386  3.85  0.  0.
387  3.86  0.  0.
388  3.87  0.  0.
389  3.88  0.  0.
390  3.89  0.  0.
391  3.90  0.  0.
392  3.91  0.  0.
393  3.92  0.  0.
394  3.93  0.  0.
395  3.94  0.  0.
396  3.95  0.  0.
397  3.96  0.  0.
398  3.97  0.  0.
399  3.98  0.  0.
400  3.99  0.  0.
401  4.00  0.  0.
402  4.01  0.  0.
403  4.02  0.  0.
404  4.03  0.  0.
405  4.04  0.  0.
406  4.05  0.  0.
407  4.06  0.  0.
408  4.07  0.  0.
409  4.08  0.  0.
410  4.09  0.  0.
411  4.10  0.  0.
412  4.11  0.  0.
413  4.12  0.  0.
414  4.13  0.  0.
415  4.14  0.  0.
416  4.15  0.  0.
417  4.16  0.  0.
418  4.17  0.  0.
419  4.18  0.  0.
420  4.19  0.  0.
421  4.20  0.  0.
422  4.21  0.  0.
423  4.22  0.  0.
424  4.23  0.  0.
425  4.24  0.  0.
426  4.25  0.  0.
427  4.26  0.  0.
428  4.27  0.  0.
429  4.28  0.  0.
430  4.29  0.  0.
431  4.30  0.  0.
432  4.31  0.  0.
433  4.32  0.  0.
434  4.33  0.  0.
435  4.34  0.  0.
436  4.35  0.  0.
437  4.36  0.  0.
438  4.37  0.  0.
439  4.38  0.  0.
440  4.39  0.  0.
441  4.40  0.  0.
442  4.41  0.  0.
443  4.42  0.  0.
444  4.43  0.  0.
445  4.44  0.  0.
446  4.45  0.  0.
447  4.46  0.  0.
448  4.47  0.  0.
449  4.48  0.  0.
450  4.49  0.  0.
451  4.50  0.  0.
452  4.51  0.  0.
453  4.52  0.  0.
454  4.53  0.  0.
455  4.54  0.  0.
456  4.55  0.  0.
457  4.56  0.  0.
458  4.57  0.  0.
459  4.58  0.  0.
460  4.59  0.  0.
461  4.60  0.  0.
462  4.61  0.  0.
463  4.62  0.  0.
464  4.63  0.  0.
465  4.64  0.  0.
466  4.65  0.  0.
467  4.66  0.  0.
468  4.67  0.  0.
469  4.68  0.  0.
470  4.69  0.  0.
471  4.70  0.  0.
472  4.71  0.  0.
473  4.72  0.  0.
474  4.73  0.  0.
475  4.74  0.  0.
476  4.75  0.  0.
477  4.76  0.  0.
478  4.77  0.  0.
479  4.78  0.  0.
480  4.79  0.  0.
481  4.80  0.  0.
482  4.81  0.  0.
483  4.82  0.  0.
484  4.83  0.  0.
485  4.84  0.  0.
486  4.85  0.  0.
487  4.86  0.  0.
488  4.87  0.  0.
489  4.88  0.  0.
490  4.89  0.  0.
491  4.90  0.  0.
492  4.91  0.  0.
493  4.92  0.  0.
494  4.93  0.  0.
495  4.94  0.  0.
496  4.95  0.  0.
497  4.96  0.  0.
498  4.97  0.  0.
499  4.98  0.  0.
500  4.99  0.  0.
501  5.00  0.  0.
502  5.01  0.  0.
503  5.02  0.  0.
504  5.03  0.  0.
505  5.04  0.  0.
506  5.05  0.  0.
507  5.06  0.  0.
508  5.07  0.  0.
509  5.08  0.  0.
510  5.09  0.  0.
511  5.10  0.  0.
512  5.11  0.  0.
513  5.12  0.  0.
514  5.13  0.  0.
515  5.14  0.  0.
516  5.15  0.  0.
517  5.16  0.  0.
518  5.17  0.  0.
519  5.18  0.  0.
520  5.19  0.  0.
521  5.20  0.  0.
522  5.21  0.  0.
523  5.22  0.  0.
524  5.23  0.  0.
525  5.24  0.  0.
526  5.25  0.  0.
527  5.26  0.  0.
528  5.27  0.  0.
529  5.28  0.  0.
530  5.29  0.  0.
531  5.30  0.  0.
532  5.31  0.  0.
533  5.32  0.  0.
534  5.33  0.  0.
535  5.34  0.  0.
536  5.35  0.  0.
537  5.36  0.  0.
538  5.37  0.  0.
539  5.38  0.  0.
540  5.39  0.  0.
541  5.40  0.  0.
542  5.41  0.  0.
543  5.42  0.  0.
544  5.43  0.  0.
545  5.44  0.  0.
546  5.45  0.  0.
547  5.46  0.  0.
548  5.47  0.  0.
549  5.48  0.  0.
550  5.49  0.  0.
551  5.50  0.  0.
552  5.51  0.  0.
553  5.52  0.  0.
554  5.53  0.  0.
555  5.54  0.  0.
556  5.55  0.  0.
557  5.56  0.  0.
558  5.57  0.  0.
559  5.58  0.  0.
560  5.59  0.  0.
561  5.60  0.  0.
562  5.61  0.  0.
563  5.62  0.  0.
564  5.63  0.  0.
565  5.64  0.  0.
566  5.65  0.  0.
567  5.66  0.  0.
568  5.67  0.  0.
569  5.68  0.  0.
570  5.69  0.  0.
571  5.70  0.  0.
572  5.71  0.  0.
573  5.72  0.  0.
574  5.73  0.  0.
575  5.74  0.  0.
576  5.75  0.  0.
577  5.76  0.  0.
578  5.77  0.  0.
579  5.78  0.  0.
580  5.79  0.  0.
581  5.80  0.  0.
582  5.81  0.  0.
583  5.82  0.  0.
584  5.83  0.  0.
585  5.84  0.  0.
586  5.85  0.  0.
587  5.86  0.  0.
588  5.87  0.  0.
589  5.88  0.  0.
590  5.89  0.  0.
591  5.90  0.  0.
592  5.91  0.  0.
593  5.92  0.  0.
594  5.93  0.  0.
595  5.94  0.  0.
596  5.95  0.  0.
597  5.96  0.  0.
598  5.97  0.  0.
599  5.98  0.  0.
600  5.99  0.  0.
1                         6.9843979454262E+00  7.6300276191294E-01
1  0.0000000000000E+00 -2.6762873861497E-10  6.7450569019023E-09
2  1.0000000000000E-02  1.2970441335478E-03 -1.1313011024984E-03
3  2.0000000000000E-02  5.1842075216331E-03 -4.5246846433219E-03
4  3.0000000000000E-02  1.1649587726777E-02 -1.0178439657011E-02
5  4.0000000000000E-02  2.0673362853424E-02 -1.8089213027745E-02
6  5.0000000000000E-02  3.2227815376053E-02 -2.8251271299972E-02
7  6.0000000000000E-02  4.6277366639130E-02 -4.0655495046486E-02
8  7.0000000000000E-02  6.2778623135151E-02 -5.5288132913820E-02
9  8.0000000000000E-02  8.1680435934601E-02 -7.2129349209900E-02
10  9.0000000000000E-02  1.0292397487445E-01 -9.1151604919582E-02
11  1.0000000000000E-01  1.2644281930330E-01 -1.1231791719804E-01
12  1.1000000000000E-01  1.5216306732588E-01 -1.3558004658569E-01
13  1.2000000000000E-01  1.8000346558330E-01 -1.6087666431787E-01
14  1.3000000000000E-01  2.0987556164386E-01 -1.8813155409273E-01
15  1.4000000000000E-01  2.4168388106109E-01 -2.1725190346198E-01
16  1.5000000000000E-01  2.7532613107845E-01 -2.4812673959449E-01
17  1.6000000000000E-01  3.1069343282531E-01 -2.8062556252912E-01
18  1.7000000000000E-01  3.4767058365593E-01 -3.1459722620402E-01
19  1.8000000000000E-01  3.8613635103627E-01 -3.4986911357085E-01
20  1.9000000000000E-01  4.2596379908420E-01 -3.8624664704407E-01
21  2.0000000000000E-01  4.6702064852395E-01 -4.2351316949140E-01
22  2.1000000000000E-01  5.0916967042833E-01 -4.6143022405240E-01
23  2.2000000000000E-01  5.5226911370163E-01 -4.9973825341288E-01
24  2.3000000000000E-01  5.9617316580729E-01 -5.3815773090680E-01
25  2.4000000000000E-01  6.4073244577643E-01 -5.7639072712961E-01
26  2.5000000000000E-01  6.8579452805469E-01 -6.1412290679486E-01
27  2.6000000000000E-01  7.3120449526365E-01 -6.5102594152967E-01
28  2.7000000000000E-01  7.7680551747868E-01 -6.8676031536378E-01
29  2.8000000000000E-01  8.2243945516698E-01 -7.2097849100372E-01
30  2.9000000000000E-01  8.6794748249514E-01 -7.5332839677517E-01
31  3.0000000000000E-01  9.1317072731493E-01 -7.8345718653186E-01
32  3.1000000000000E-01  9.5795092377575E-01 -8.1101521803238E-01
33  3.2000000000000E-01  1.0021310732005E+00 -8.3566018941634E-01
34  3.3000000000000E-01  1.0455561086047E+00 -8.5706136860582E-01
35  3.4000000000000E-01  1.0880735580407E+00 -8.7490384682018E-01
36  3.5000000000000E-01  1.1295342018194E+00 -8.8889274501572E-01
37  3.6000000000000E-01  1.1697927185939E+00 -8.9875730100791E-01
38  3.7000000000000E-01  1.2087083153007E+00 -9.0425476534494E-01
39  3.8000000000000E-01  1.2461453360258E+00 -9.0517403569025E-01
40  3.9000000000000E-01  1.2819738450180E+00 -9.0133896252575E-01
41  4.0000000000000E-01  1.3160701792824E+00 -8.9261126336789E-01
42  4.1000000000000E-01  1.3483174664749E+00 -8.7889298832985E-01
43  4.2000000000000E-01  1.3786061041633E+00 -8.6012848667521E-01
44  4.3000000000000E-01  1.4068341969201E+00 -8.3630583187558E-01
45  4.4000000000000E-01  1.4329079481673E+00 -8.0745767147524E-01
46  4.5000000000000E-01  1.4567420041868E+00 -7.7366147762009E-01
47  4.6000000000000E-01  1.4782597482412E+00 -7.3503918425813E-01
48  4.7000000000000E-01  1.4973935433026E+00 -6.9175620757991E-01
49  4.8000000000000E-01  1.5140849224650E+00 -6.4401985704175E-01
50  4.9000000000000E-01  1.5282847266878E+00 -5.9207715510555E-01
51  5.0000000000000E-01  1.5399531901022E+00 -5.3621209442951E-01
52  5.1000000000000E-01  1.5490599736703E+00 -4.7674237145436E-01
53  5.2000000000000E-01  1.5555841485325E+00 -4.1401564495045E-01
54  5.3000000000000E-01  1.5595141308875E+00 -3.4840537693636E-01
55  5.4000000000000E-01  1.5608475707223E+00 -2.8030632127207E-01
56  5.5000000000000E-01  1.5595911971305E+00 -2.1012973201186E-01
57  5.6000000000000E-01  1.5557606233303E+00 -1.3829836913138E-01
58  5.7000000000000E-01  1.5493801147980E+00 -6.5241383405474E-02
59  5.8000000000000E-01  1.5404823241801E+00  8.6108350880864E-03
60  5.9000000000000E-01  1.5291079968228E+00  8.2831759193803E-02
61  6.0000000000000E-01  1.5153056508580E+00  1.5700369238312E-01
62  6.1000000000000E-01  1.4991312358257E+00  2.3072251866110E-01
63  6.2000000000000E-01  1.4806477737675E+00  3.0360215492563E-01
64  6.3000000000000E-01  1.4599249866263E+00  3.7527863105881E-01
65  6.4000000000000E-01  1.4370389136107E+00  4.4541372948860E-01
66  6.5000000000000E-01  1.4120715219531E+00  5.1369812373094E-01
67  6.6000000000000E-01  1.3851103142008E+00  5.7985396438169E-01
68  6.7000000000000E-01  1.3562479348455E+00  6.4363687101389E-01
69  6.8000000000000E-01  1.3255817787173E+00  7.0483729927078E-01
70  6.9000000000000E-01  1.2932136031644E+00  7.6328126393503E-01
71  7.0000000000000E-01  1.2592491456095E+00  8.1883041068713E-01
72  7.1000000000000E-01  1.2237977476269E+00  8.7138144142313E-01
73  7.2000000000000E-01  1.1869719862465E+00  9.2086491015383E-01
74  7.3000000000000E-01  1.1488873127465E+00  9.6724341842831E-01
75  7.4000000000000E-01  1.1096616987807E+00  1.0105092506860E+00
76  7.5000000000000E-01  1.0694152892939E+00  1.0506815007222E+00
77  7.6000000000000E-01  1.0282700613201E+00  1.0878027503454E+00
78  7.7000000000000E-01  9.8634948745125E-01  1.1219353701153E+00
79  7.8000000000000E-01  9.4377820250037E-01  1.1531575195984E+00
80  7.9000000000000E-01  9.0068167168790E-01  1.1815589307202E+00
81  8.0000000000000E-01  8.5718585853972E-01  1.2072365623868E+00
82  8.1000000000000E-01  8.1341689061952E-01  1.2302902175085E+00
83  8.2000000000000E-01  7.6950072121890E-01  1.2508182148024E+00
84  8.3000000000000E-01  7.2556278520253E-01  1.2689132072482E+00
85  8.4000000000000E-01  6.8172764734943E-01  1.2846582368164E+00
86  8.5000000000000E-01  6.3811864174472E-01  1.2981231110988E+00
87  8.6000000000000E-01  5.9485750105409E-01  1.3093611818267E+00
88  8.7000000000000E-01  5.5206397485172E-01  1.3184065980320E+00
89  8.8000000000000E-01  5.0985543656513E-01  1.3252720979341E+00
90  8.9000000000000E-01  4.6834647903839E-01  1.3299473936570E+00
91  9.0000000000000E-01  4.2764849919215E-01  1.3323981917843E+00
92  9.1000000000000E-01  3.8786927276268E-01  1.3325658807328E+00
93  9.2000000000000E-01  3.4911252062389E-01  1.3303679032014E+00
94  9.3000000000000E-01  3.1147746872448E-01  1.3256988187433E+00
95  9.4000000000000E-01  2.7505840419564E-01  1.3184320480821E+00
96  9.5000000000000E-01  2.3994423069128E-01  1.3084222773762E+00
97  9.6000000000000E-01  2.0621802650206E-01  1.2955084874909E+00
98  9.7000000000000E-01  1.7395660942418E-01  1.2795175607083E+00
99  9.8000000000000E-01  1.4323011275472E-01  1.2602684054288E+00
100  9.9000000000000E-01  1.1410157711623E-01  1.2375765285194E+00
101  1.0000000000000E+00  8.6626563076625E-02  1.2112589752492E+00
102  1.0100000000000E+00  6.0852789717861E-02  1.1811395484114E+00
103  1.0200000000000E+00  3.6819804411796E-02  1.1470542114217E+00
104  1.0300000000000E+00  1.4558689080169E-02  1.1088565750366E+00
105  1.0400000000000E+00 -5.9081918567869E-03  1.0664233639567E+00
106  1.0500000000000E+00 -2.4567396802758E-02  1.0196597580390E+00
107  1.0600000000000E+00 -4.1414560794422E-02  9.6850450316426E-01
108  1.0700000000000E+00 -5.6454493360047E-02  9.1293468900911E-01
109  1.0800000000000E+00 -6.9701216422845E-02  8.5297009499224E-01
110  1.0900000000000E+00 -8.1177938760751E-02  7.8867701147137E-01
111  1.1000000000000E+00 -9.0916964123492E-02  7.2017145070920E-01
112  1.1100000000000E+00 -9.8959530766172E-02  6.4762167112246E-01
113  1.1200000000000E+00 -1.0535558087324E-01  5.7124994866858E-01
114  1.1300000000000E+00 -1.1016345910927E-01  4.9133354075506E-01
115  1.1400000000000E+00 -1.1344954033165E-01  4.0820480055785E-01
116  1.1500000000000E+00 -1.1528778732158E-01  3.2225041287222E-01
117  1.1600000000000E+00 -1.1575924022415E-01  2.3390973637625E-01
118  1.1700000000000E+00 -1.1495144021940E-01  1.4367225120145E-01
119  1.1800000000000E+00 -1.1295779076397E-01  5.2074124719627E-02
120  1.1900000000000E+00 -1.0987686053528E-01 -4.0306077719915E-02
121  1.2000000000000E+00 -1.0581163296073E-01 -1.3285249708602E-01
122  1.2100000000000E+00 -1.0086870792079E-01 -2.2491784728867E-01
123  1.2200000000000E+00 -9.5157461856113E-02 -3.1582997975102E-01
124  1.2300000000000E+00 -8.8789173087053E-02 -4.0489907086510E-01
125  1.2400000000000E+00 -8.1876119653909E-02 -4.9142534789414E-01
126  1.2500000000000E+00 -7.4530657405844E-02 -5.7470726087832E-01
127  1.2600000000000E+00 -6.6864286402838E-02 -6.5405000154377E-01
128  1.2700000000000E+00 -5.8986713942639E-02 -7.2877426524330E-01
129  1.2800000000000E+00 -5.1004922687231E-02 -7.9822514852218E-01
130  1.2900000000000E+00 -4.3022252440741E-02 -8.6178107303341E-01
131  1.3000000000000E+00 -3.5137504127544E-02 -9.1886262616695E-01
132  1.3100000000000E+00 -2.7444074442219E-02 -9.6894120980206E-01
133  1.3200000000000E+00 -2.0029129498775E-02 -1.0115473909388E+00
134  1.3300000000000E+00 -1.2972825606293E-02 -1.0462788514302E+00