Lu    ONCVPSP-4.0.1  r_core=   2.01127   1.60232   1.90585   1.40473
71.0000     25.0000      250626    zatom,zion,pspd
8      11   3     4   600     0    pspcod,pspxc,lmax,lloc,mmax,r2well
5.99000000  7.20000000  0.00000000    rchrg fchrg qchrg
2     2     2     2     0    nproj
1     1           extension_switch
0                         6.4410232803169E+00  9.4611005826237E-01
1  0.0000000000000E+00  7.6357753453493E-11 -2.1439882334773E-10
2  1.0000000000000E-02  4.7118246801148E-02 -5.7409384399877E-04
3  2.0000000000000E-02  9.4195201733694E-02 -1.1773011012734E-03
4  3.0000000000000E-02  1.4118945436044E-01 -1.8382204987222E-03
5  4.0000000000000E-02  1.8805935905892E-01 -2.5844269494928E-03
6  5.0000000000000E-02  2.3476292228918E-01 -3.4419734887924E-03
7  6.0000000000000E-02  2.8125769563944E-01 -4.4349096678899E-03
8  7.0000000000000E-02  3.2750067648544E-01 -5.5848216387940E-03
9  8.0000000000000E-02  3.7344821802288E-01 -6.9103989476923E-03
10  9.0000000000000E-02  4.1905595033793E-01 -8.4270327908665E-03
11  1.0000000000000E-01  4.6427871406986E-01 -1.0146450174883E-02
12  1.1000000000000E-01  5.0907050809250E-01 -1.2076388066207E-02
13  1.2000000000000E-01  5.5338445249901E-01 -1.4220311217280E-02
14  1.3000000000000E-01  5.9717276801867E-01 -1.6577176920056E-02
15  1.4000000000000E-01  6.4038677282640E-01 -1.9141249468336E-02
16  1.5000000000000E-01  6.8297689752678E-01 -2.1901966610660E-02
17  1.6000000000000E-01  7.2489271890620E-01 -2.4843859751612E-02
18  1.7000000000000E-01  7.6608301285152E-01 -2.7946529114899E-02
19  1.8000000000000E-01  8.0649582663216E-01 -3.1184674522734E-02
20  1.9000000000000E-01  8.4607857053753E-01 -3.4528181877103E-02
21  2.0000000000000E-01  8.8477812865468E-01 -3.7942264855881E-02
22  2.1000000000000E-01  9.2254098836383E-01 -4.1387660765022E-02
23  2.2000000000000E-01  9.5931338792431E-01 -4.4820878923429E-02
24  2.3000000000000E-01  9.9504148132186E-01 -4.8194499404933E-02
25  2.4000000000000E-01  1.0296715193528E+00 -5.1457519427308E-02
26  2.5000000000000E-01  1.0631500457320E+00 -5.4555744167285E-02
27  2.6000000000000E-01  1.0954241068343E+00 -5.7432218297888E-02
28  2.7000000000000E-01  1.1264414735100E+00 -6.0027694095357E-02
29  2.8000000000000E-01  1.1561508732619E+00 -6.2281131552182E-02
30  2.9000000000000E-01  1.1845022309330E+00 -6.4130225564604E-02
31  3.0000000000000E-01  1.2114469159262E+00 -6.5511954941877E-02
32  3.1000000000000E-01  1.2369379938773E+00 -6.6363147713949E-02
33  3.2000000000000E-01  1.2609304806088E+00 -6.6621056997284E-02
34  3.3000000000000E-01  1.2833815961305E+00 -6.6223941518871E-02
35  3.4000000000000E-01  1.3042510164000E+00 -6.5111644796833E-02
36  3.5000000000000E-01  1.3235011205361E+00 -6.3226166936394E-02
37  3.6000000000000E-01  1.3410972311697E+00 -6.0512223021042E-02
38  3.7000000000000E-01  1.3570078456389E+00 -5.6917782163498E-02
39  3.8000000000000E-01  1.3712048557740E+00 -5.2394581427582E-02
40  3.9000000000000E-01  1.3836637540820E+00 -4.6898609041509E-02
41  4.0000000000000E-01  1.3943638242255E+00 -4.0390551592135E-02
42  4.1000000000000E-01  1.4032883137974E+00 -3.2836200219150E-02
43  4.2000000000000E-01  1.4104245875222E+00 -2.4206811212574E-02
44  4.3000000000000E-01  1.4157642591586E+00 -1.4479416855984E-02
45  4.4000000000000E-01  1.4193033005494E+00 -3.6370828456053E-03
46  4.5000000000000E-01  1.4210421264440E+00  8.3308908507044E-03
47  4.6000000000000E-01  1.4209856539223E+00  2.1428828256333E-02
48  4.7000000000000E-01  1.4191433354600E+00  3.5654596722933E-02
49  4.8000000000000E-01  1.4155291649038E+00  5.0999588654501E-02
50  4.9000000000000E-01  1.4101616558615E+00  6.7448766268926E-02
51  5.0000000000000E-01  1.4030637922554E+00  8.4980769367796E-02
52  5.1000000000000E-01  1.3942629510433E+00  1.0356808539580E-01
53  5.2000000000000E-01  1.3837907973598E+00  1.2317728037856E-01
54  5.3000000000000E-01  1.3716831525924E+00  1.4376928863929E-01
55  5.4000000000000E-01  1.3579798361595E+00  1.6529975851833E-01
56  5.5000000000000E-01  1.3427244820083E+00  1.8771945066185E-01
57  5.6000000000000E-01  1.3259643310967E+00  2.1097468481477E-01
58  5.7000000000000E-01  1.3077500013595E+00  2.3500783045529E-01
59  5.8000000000000E-01  1.2881352368833E+00  2.5975783605120E-01
60  5.9000000000000E-01  1.2671766382288E+00  2.8516079120826E-01
61  6.0000000000000E-01  1.2449333760316E+00  3.1115051552479E-01
62  6.1000000000000E-01  1.2214668901948E+00  3.3765916756956E-01
63  6.2000000000000E-01  1.1968405771417E+00  3.6461786706861E-01
64  6.3000000000000E-01  1.1711194677347E+00  3.9195732312476E-01
65  6.4000000000000E-01  1.1443698985806E+00  4.1960846110515E-01
66  6.5000000000000E-01  1.1166591795294E+00  4.4750304072266E-01
67  6.6000000000000E-01  1.0880552602373E+00  4.7557425780624E-01
68  6.7000000000000E-01  1.0586263986990E+00  5.0375732230806E-01
69  6.8000000000000E-01  1.0284408346643E+00  5.3199000523133E-01
70  6.9000000000000E-01  9.9756647083054E-01  5.6021314738187E-01
71  7.0000000000000E-01  9.6607056465815E-01  5.8837112315035E-01
72  7.1000000000000E-01  9.3401943357496E-01  6.1641225291668E-01
73  7.2000000000000E-01  9.0147817623449E-01  6.4428915813282E-01
74  7.3000000000000E-01  8.6851041235897E-01  6.7195905368207E-01
75  7.4000000000000E-01  8.3517804354063E-01  6.9938397272621E-01
76  7.5000000000000E-01  8.0154103719102E-01  7.2653091993454E-01
77  7.6000000000000E-01  7.6765723562079E-01  7.5337194973266E-01
78  7.7000000000000E-01  7.3358219200289E-01  7.7988416700967E-01
79  7.8000000000000E-01  6.9936903472202E-01  8.0604964857293E-01
80  7.9000000000000E-01  6.6506836134455E-01  8.3185528453082E-01
81  8.0000000000000E-01  6.3072816315879E-01  8.5729253971115E-01
82  8.1000000000000E-01  5.9639378093613E-01  8.8235713617430E-01
83  8.2000000000000E-01  5.6210789225401E-01  9.0704865885003E-01
84  8.3000000000000E-01  5.2791053040157E-01  9.3137008730436E-01
85  8.4000000000000E-01  4.9383913456388E-01  9.5532725761974E-01
86  8.5000000000000E-01  4.5992863065026E-01  9.7892825933927E-01
87  8.6000000000000E-01  4.2621154180193E-01  1.0021827733735E+00
88  8.7000000000000E-01  3.9271812728454E-01  1.0251013576890E+00
89  8.8000000000000E-01  3.5947654814598E-01  1.0476946884803E+00
90  8.9000000000000E-01  3.2651305770068E-01  1.0699727653662E+00
91  9.0000000000000E-01  2.9385221459247E-01  1.0919440899349E+00
92  9.1000000000000E-01  2.6151711588914E-01  1.1136148276837E+00
93  9.2000000000000E-01  2.2952964737788E-01  1.1349879640539E+00
94  9.3000000000000E-01  1.9791074796201E-01  1.1560624658375E+00
95  9.4000000000000E-01  1.6668068480925E-01  1.1768324597230E+00
96  9.5000000000000E-01  1.3585933567194E-01  1.1972864401534E+00
97  9.6000000000000E-01  1.0546647459140E-01  1.2174065189744E+00
98  9.7000000000000E-01  7.5522057015895E-02  1.2371677295557E+00
99  9.8000000000000E-01  4.6046500203468E-02  1.2565373981655E+00
100  9.9000000000000E-01  1.7060954652407E-02  1.2754745953621E+00
101  1.0000000000000E+00 -1.1412437797449E-02  1.2939296800332E+00
102  1.0100000000000E+00 -3.9350303616182E-02  1.3118439484529E+00
103  1.0200000000000E+00 -6.6727819444320E-02  1.3291494003408E+00
104  1.0300000000000E+00 -9.3518520614706E-02  1.3457686333816E+00
105  1.0400000000000E+00 -1.1969414074478E-01  1.3616148770008E+00
106  1.0500000000000E+00 -1.4522448672279E-01  1.3765921753735E+00
107  1.0600000000000E+00 -1.7007735328122E-01  1.3905957286752E+00
108  1.0700000000000E+00 -1.9421848117086E-01  1.4035124004425E+00
109  1.0800000000000E+00 -2.1761156271705E-01  1.4152213975970E+00
110  1.0900000000000E+00 -2.4021829825014E-01  1.4255951281875E+00
111  1.1000000000000E+00 -2.6199850654980E-01  1.4345002401967E+00
112  1.1100000000000E+00 -2.8291029202415E-01  1.4417988428486E+00
113  1.1200000000000E+00 -3.0291027084906E-01  1.4473499096955E+00
114  1.1300000000000E+00 -3.2195385771956E-01  1.4510108603729E+00
115  1.1400000000000E+00 -3.3999561419936E-01  1.4526393152348E+00
116  1.1500000000000E+00 -3.5698965889520E-01  1.4520950141264E+00
117  1.1600000000000E+00 -3.7289013881261E-01  1.4492418872673E+00
118  1.1700000000000E+00 -3.8765176026906E-01  1.4439502626053E+00
119  1.1800000000000E+00 -4.0123037662448E-01  1.4360991899907E+00
120  1.1900000000000E+00 -4.1358362884634E-01  1.4255788581442E+00
121  1.2000000000000E+00 -4.2467163351844E-01  1.4122930755269E+00
122  1.2100000000000E+00 -4.3445771134595E-01  1.3961617809354E+00
123  1.2200000000000E+00 -4.4290914746364E-01  1.3771235438064E+00
124  1.2300000000000E+00 -4.4999797292025E-01  1.3551380078369E+00
125  1.2400000000000E+00 -4.5570175457997E-01  1.3301882245801E+00
126  1.2500000000000E+00 -4.6000437830853E-01  1.3022828160340E+00
127  1.2600000000000E+00 -4.6289680772048E-01  1.2714578969744E+00
128  1.2700000000000E+00 -4.6437779790727E-01  1.2377786787579E+00
129  1.2800000000000E+00 -4.6445454043035E-01  1.2013406664887E+00
130  1.2900000000000E+00 -4.6314321245491E-01  1.1622703508343E+00
131  1.3000000000000E+00 -4.6046939917090E-01  1.1207252842415E+00
132  1.3100000000000E+00 -4.5646835458883E-01  1.0768934188222E+00
133  1.3200000000000E+00 -4.5118506140081E-01  1.0309915697216E+00
134  1.3300000000000E+00 -4.4467404584466E-01  9.8326285330573E-01
135  1.3400000000000E+00 -4.3699889833609E-01  9.3397293380218E-01
136  1.3500000000000E+00 -4.2823144508928E-01  8.8340489526203E-01
137  1.3600000000000E+00 -4.1845050996163E-01  8.3185253765782E-01
138  1.3700000000000E+00 -4.0774019932334E-01  7.7961187657403E-01
139  1.3800000000000E+00 -3.9618763575224E-01  7.2697060475024E-01
140  1.3900000000000E+00 -3.8388005535226E-01  6.7419523351976E-01
141  1.4000000000000E+00 -3.7090123096879E-01  6.2151589158173E-01
142  1.4100000000000E+00 -3.5732690951900E-01  5.6910736519323E-01
143  1.4200000000000E+00 -3.4322399249580E-01  5.1709091776723E-01
144  1.4300000000000E+00 -3.2865771179960E-01  4.6557606822551E-01
145  1.4400000000000E+00 -3.1369467775427E-01  4.1467774410793E-01
146  1.4500000000000E+00 -2.9840247047296E-01  3.6451481374874E-01
147  1.4600000000000E+00 -2.8284936513084E-01  3.1520938266535E-01
148  1.4700000000000E+00 -2.6710400400496E-01  2.6688583852360E-01
149  1.4800000000000E+00 -2.5123505616668E-01  2.1966986142841E-01
150  1.4900000000000E+00 -2.3531086591207E-01  1.7368739791995E-01
151  1.5000000000000E+00 -2.1939909279353E-01  1.2906360715538E-01
152  1.5100000000000E+00 -2.0356634583061E-01  8.5921786167993E-02
153  1.5200000000000E+00 -1.8787781575832E-01  4.4382287075263E-02
154  1.5300000000000E+00 -1.7239690828394E-01  4.5614347143514E-03
155  1.5400000000000E+00 -1.5718488181524E-01 -3.3429544528606E-02
156  1.5500000000000E+00 -1.4230049300660E-01 -6.9485572500382E-02
157  1.5600000000000E+00 -1.2779965349504E-01 -1.0350873732063E-01
158  1.5700000000000E+00 -1.1373510111339E-01 -1.3540926962714E-01
159  1.5800000000000E+00 -1.0015608880029E-01 -1.6510646714505E-01
160  1.5900000000000E+00 -8.7108094312220E-02 -1.9252955803909E-01
161  1.6000000000000E+00 -7.4632553666361E-02 -2.1761849407322E-01
162  1.6100000000000E+00 -6.2766621092852E-02 -2.4032466501781E-01
163  1.6200000000000E+00 -5.1542958040889E-02 -2.6061152648398E-01
164  1.6300000000000E+00 -4.0989553557936E-02 -2.7845513403491E-01
165  1.6400000000000E+00 -3.1129578086922E-02 -2.9384457727025E-01
166  1.6500000000000E+00 -2.1981272452210E-02 -3.0678230840315E-01
167  1.6600000000000E+00 -1.3557873494400E-02 -3.1728436080128E-01
168  1.6700000000000E+00 -5.8675774785902E-03 -3.2538045399754E-01
169  1.6800000000000E+00  1.0864579149605E-03 -3.3111398261835E-01
170  1.6900000000000E+00  7.3060725698661E-03 -3.3454188779147E-01
171  1.7000000000000E+00  1.2798023782381E-02 -3.3573441065213E-01
172  1.7100000000000E+00  1.7573867487565E-02 -3.3477472961088E-01
173  1.7200000000000E+00  2.1649800246920E-02 -3.3175847846044E-01
174  1.7300000000000E+00  2.5046466157461E-02 -3.2679316042684E-01
175  1.7400000000000E+00  2.7788725358080E-02 -3.1999744431096E-01
176  1.7500000000000E+00  2.9905389844200E-02 -3.1150036322410E-01
177  1.7600000000000E+00  3.1428926763563E-02 -3.0144041495094E-01
178  1.7700000000000E+00  3.2395131659625E-02 -2.8996457151221E-01
179  1.7800000000000E+00  3.2842774553853E-02 -2.7722720690485E-01
180  1.7900000000000E+00  3.2813221599308E-02 -2.6338895117957E-01
181  1.8000000000000E+00  3.2350035475886E-02 -2.4861548050286E-01
182  1.8100000000000E+00  3.1498557856546E-02 -2.3307625329496E-01
183  1.8200000000000E+00  3.0305477474769E-02 -2.1694320316040E-01
184  1.8300000000000E+00  2.8818387476603E-02 -2.0038939979604E-01
185  1.8400000000000E+00  2.7085335858741E-02 -1.8358768942225E-01
186  1.8500000000000E+00  2.5154372885011E-02 -1.6670932656535E-01
187  1.8600000000000E+00  2.3073099406882E-02 -1.4992260911397E-01
188  1.8700000000000E+00  2.0888220043903E-02 -1.3339152867660E-01
189  1.8800000000000E+00  1.8645106429192E-02 -1.1727445186469E-01
190  1.8900000000000E+00  1.6387360114223E-02 -1.0172280334567E-01
191  1.9000000000000E+00  1.4156443773768E-02 -8.6879946100943E-02
192  1.9100000000000E+00  1.1991197730284E-02 -7.2879749589011E-02
193  1.9200000000000E+00  9.9264018847516E-03 -5.9842357332067E-02
194  1.9300000000000E+00  7.9935690413912E-03 -4.7876389133301E-02
195  1.9400000000000E+00  6.2228658752211E-03 -3.7084501698264E-02
196  1.9500000000000E+00  4.6403318886157E-03 -2.7555437946913E-02
197  1.9600000000000E+00  3.2678032703801E-03 -1.9363753751976E-02
198  1.9700000000000E+00  2.1226860952491E-03 -1.2569132518830E-02
199  1.9800000000000E+00  1.2181612356149E-03 -7.2180739924470E-03
200  1.9900000000000E+00  5.5990915933896E-04 -3.3245158195560E-03
201  2.0000000000000E+00  1.5755828757644E-04 -9.3885278230744E-04
202  2.0100000000000E+00  6.3477704650395E-06 -3.8023970581535E-05
203  2.0200000000000E+00 -5.0760048304714E-06  3.0432669432839E-05
204  2.0300000000000E+00  2.5162886655115E-06 -1.5032976467624E-05
205  2.04 -0.  0.
206  2.05 -0. -0.
207  2.06  0.  0.
208  2.07  0.  0.
209  2.08  0.  0.
210  2.09  0.  0.
211  2.10  0.  0.
212  2.11  0.  0.
213  2.12  0.  0.
214  2.13  0.  0.
215  2.14  0.  0.
216  2.15  0.  0.
217  2.16  0.  0.
218  2.17  0.  0.
219  2.18  0.  0.
220  2.19  0.  0.
221  2.20  0.  0.
222  2.21  0.  0.
223  2.22  0.  0.
224  2.23  0.  0.
225  2.24  0.  0.
226  2.25  0.  0.
227  2.26  0.  0.
228  2.27  0.  0.
229  2.28  0.  0.
230  2.29  0.  0.
231  2.30  0.  0.
232  2.31  0.  0.
233  2.32  0.  0.
234  2.33  0.  0.
235  2.34  0.  0.
236  2.35  0.  0.
237  2.36  0.  0.
238  2.37  0.  0.
239  2.38  0.  0.
240  2.39  0.  0.
241  2.40  0.  0.
242  2.41  0.  0.
243  2.42  0.  0.
244  2.43  0.  0.
245  2.44  0.  0.
246  2.45  0.  0.
247  2.46  0.  0.
248  2.47  0.  0.
249  2.48  0.  0.
250  2.49  0.  0.
251  2.50  0.  0.
252  2.51  0.  0.
253  2.52  0.  0.
254  2.53  0.  0.
255  2.54  0.  0.
256  2.55  0.  0.
257  2.56  0.  0.
258  2.57  0.  0.
259  2.58  0.  0.
260  2.59  0.  0.
261  2.60  0.  0.
262  2.61  0.  0.
263  2.62  0.  0.
264  2.63  0.  0.
265  2.64  0.  0.
266  2.65  0.  0.
267  2.66  0.  0.
268  2.67  0.  0.
269  2.68  0.  0.
270  2.69  0.  0.
271  2.70  0.  0.
272  2.71  0.  0.
273  2.72  0.  0.
274  2.73  0.  0.
275  2.74  0.  0.
276  2.75  0.  0.
277  2.76  0.  0.
278  2.77  0.  0.
279  2.78  0.  0.
280  2.79  0.  0.
281  2.80  0.  0.
282  2.81  0.  0.
283  2.82  0.  0.
284  2.83  0.  0.
285  2.84  0.  0.
286  2.85  0.  0.
287  2.86  0.  0.
288  2.87  0.  0.
289  2.88  0.  0.
290  2.89  0.  0.
291  2.90  0.  0.
292  2.91  0.  0.
293  2.92  0.  0.
294  2.93  0.  0.
295  2.94  0.  0.
296  2.95  0.  0.
297  2.96  0.  0.
298  2.97  0.  0.
299  2.98  0.  0.
300  2.99  0.  0.
301  3.00  0.  0.
302  3.01  0.  0.
303  3.02  0.  0.
304  3.03  0.  0.
305  3.04  0.  0.
306  3.05  0.  0.
307  3.06  0.  0.
308  3.07  0.  0.
309  3.08  0.  0.
310  3.09  0.  0.
311  3.10  0.  0.
312  3.11  0.  0.
313  3.12  0.  0.
314  3.13  0.  0.
315  3.14  0.  0.
316  3.15  0.  0.
317  3.16  0.  0.
318  3.17  0.  0.
319  3.18  0.  0.
320  3.19  0.  0.
321  3.20  0.  0.
322  3.21  0.  0.
323  3.22  0.  0.
324  3.23  0.  0.
325  3.24  0.  0.
326  3.25  0.  0.
327  3.26  0.  0.
328  3.27  0.  0.
329  3.28  0.  0.
330  3.29  0.  0.
331  3.30  0.  0.
332  3.31  0.  0.
333  3.32  0.  0.
334  3.33  0.  0.
335  3.34  0.  0.
336  3.35  0.  0.
337  3.36  0.  0.
338  3.37  0.  0.
339  3.38  0.  0.
340  3.39  0.  0.
341  3.40  0.  0.
342  3.41  0.  0.
343  3.42  0.  0.
344  3.43  0.  0.
345  3.44  0.  0.
346  3.45  0.  0.
347  3.46  0.  0.
348  3.47  0.  0.
349  3.48  0.  0.
350  3.49  0.  0.
351  3.50  0.  0.
352  3.51  0.  0.
353  3.52  0.  0.
354  3.53  0.  0.
355  3.54  0.  0.
356  3.55  0.  0.
357  3.56  0.  0.
358  3.57  0.  0.
359  3.58  0.  0.
360  3.59  0.  0.
361  3.60  0.  0.
362  3.61  0.  0.
363  3.62  0.  0.
364  3.63  0.  0.
365  3.64  0.  0.
366  3.65  0.  0.
367  3.66  0.  0.
368  3.67  0.  0.
369  3.68  0.  0.
370  3.69  0.  0.
371  3.70  0.  0.
372  3.71  0.  0.
373  3.72  0.  0.
374  3.73  0.  0.
375  3.74  0.  0.
376  3.75  0.  0.
377  3.76  0.  0.
378  3.77  0.  0.
379  3.78  0.  0.
380  3.79  0.  0.
381  3.80  0.  0.
382  3.81  0.  0.
383  3.82  0.  0.
384  3.83  0.  0.
385  3.84  0.  0.
386  3.85  0.  0.
387  3.86  0.  0.
388  3.87  0.  0.
389  3.88  0.  0.
390  3.89  0.  0.
391  3.90  0.  0.
392  3.91  0.  0.
393  3.92  0.  0.
394  3.93  0.  0.
395  3.94  0.  0.
396  3.95  0.  0.
397  3.96  0.  0.
398  3.97  0.  0.
399  3.98  0.  0.
400  3.99  0.  0.
401  4.00  0.  0.
402  4.01  0.  0.
403  4.02  0.  0.
404  4.03  0.  0.
405  4.04  0.  0.
406  4.05  0.  0.
407  4.06  0.  0.
408  4.07  0.  0.
409  4.08  0.  0.
410  4.09  0.  0.
411  4.10  0.  0.
412  4.11  0.  0.
413  4.12  0.  0.
414  4.13  0.  0.
415  4.14  0.  0.
416  4.15  0.  0.
417  4.16  0.  0.
418  4.17  0.  0.
419  4.18  0.  0.
420  4.19  0.  0.
421  4.20  0.  0.
422  4.21  0.  0.
423  4.22  0.  0.
424  4.23  0.  0.
425  4.24  0.  0.
426  4.25  0.  0.
427  4.26  0.  0.
428  4.27  0.  0.
429  4.28  0.  0.
430  4.29  0.  0.
431  4.30  0.  0.
432  4.31  0.  0.
433  4.32  0.  0.
434  4.33  0.  0.
435  4.34  0.  0.
436  4.35  0.  0.
437  4.36  0.  0.
438  4.37  0.  0.
439  4.38  0.  0.
440  4.39  0.  0.
441  4.40  0.  0.
442  4.41  0.  0.
443  4.42  0.  0.
444  4.43  0.  0.
445  4.44  0.  0.
446  4.45  0.  0.
447  4.46  0.  0.
448  4.47  0.  0.
449  4.48  0.  0.
450  4.49  0.  0.
451  4.50  0.  0.
452  4.51  0.  0.
453  4.52  0.  0.
454  4.53  0.  0.
455  4.54  0.  0.
456  4.55  0.  0.
457  4.56  0.  0.
458  4.57  0.  0.
459  4.58  0.  0.
460  4.59  0.  0.
461  4.60  0.  0.
462  4.61  0.  0.
463  4.62  0.  0.
464  4.63  0.  0.
465  4.64  0.  0.
466  4.65  0.  0.
467  4.66  0.  0.
468  4.67  0.  0.
469  4.68  0.  0.
470  4.69  0.  0.
471  4.70  0.  0.
472  4.71  0.  0.
473  4.72  0.  0.
474  4.73  0.  0.
475  4.74  0.  0.
476  4.75  0.  0.
477  4.76  0.  0.
478  4.77  0.  0.
479  4.78  0.  0.
480  4.79  0.  0.
481  4.80  0.  0.
482  4.81  0.  0.
483  4.82  0.  0.
484  4.83  0.  0.
485  4.84  0.  0.
486  4.85  0.  0.
487  4.86  0.  0.
488  4.87  0.  0.
489  4.88  0.  0.
490  4.89  0.  0.
491  4.90  0.  0.
492  4.91  0.  0.
493  4.92  0.  0.
494  4.93  0.  0.
495  4.94  0.  0.
496  4.95  0.  0.
497  4.96  0.  0.
498  4.97  0.  0.
499  4.98  0.  0.
500  4.99  0.  0.
501  5.00  0.  0.
502  5.01  0.  0.
503  5.02  0.  0.
504  5.03  0.  0.
505  5.04  0.  0.
506  5.05  0.  0.
507  5.06  0.  0.
508  5.07  0.  0.
509  5.08  0.  0.
510  5.09  0.  0.
511  5.10  0.  0.
512  5.11  0.  0.
513  5.12  0.  0.
514  5.13  0.  0.
515  5.14  0.  0.
516  5.15  0.  0.
517  5.16  0.  0.
518  5.17  0.  0.
519  5.18  0.  0.
520  5.19  0.  0.
521  5.20  0.  0.
522  5.21  0.  0.
523  5.22  0.  0.
524  5.23  0.  0.
525  5.24  0.  0.
526  5.25  0.  0.
527  5.26  0.  0.
528  5.27  0.  0.
529  5.28  0.  0.
530  5.29  0.  0.
531  5.30  0.  0.
532  5.31  0.  0.
533  5.32  0.  0.
534  5.33  0.  0.
535  5.34  0.  0.
536  5.35  0.  0.
537  5.36  0.  0.
538  5.37  0.  0.
539  5.38  0.  0.
540  5.39  0.  0.
541  5.40  0.  0.
542  5.41  0.  0.
543  5.42  0.  0.
544  5.43  0.  0.
545  5.44  0.  0.
546  5.45  0.  0.
547  5.46  0.  0.
548  5.47  0.  0.
549  5.48  0.  0.
550  5.49  0.  0.
551  5.50  0.  0.
552  5.51  0.  0.
553  5.52  0.  0.
554  5.53  0.  0.
555  5.54  0.  0.
556  5.55  0.  0.
557  5.56  0.  0.
558  5.57  0.  0.
559  5.58  0.  0.
560  5.59  0.  0.
561  5.60  0.  0.
562  5.61  0.  0.
563  5.62  0.  0.
564  5.63  0.  0.
565  5.64  0.  0.
566  5.65  0.  0.
567  5.66  0.  0.
568  5.67  0.  0.
569  5.68  0.  0.
570  5.69  0.  0.
571  5.70  0.  0.
572  5.71  0.  0.
573  5.72  0.  0.
574  5.73  0.  0.
575  5.74  0.  0.
576  5.75  0.  0.
577  5.76  0.  0.
578  5.77  0.  0.
579  5.78  0.  0.
580  5.79  0.  0.
581  5.80  0.  0.
582  5.81  0.  0.
583  5.82  0.  0.
584  5.83  0.  0.
585  5.84  0.  0.
586  5.85  0.  0.
587  5.86  0.  0.
588  5.87  0.  0.
589  5.88  0.  0.
590  5.89  0.  0.
591  5.90  0.  0.
592  5.91  0.  0.
593  5.92  0.  0.
594  5.93  0.  0.
595  5.94  0.  0.
596  5.95  0.  0.
597  5.96  0.  0.
598  5.97  0.  0.
599  5.98  0.  0.
600  5.99  0.  0.
1                         6.1237449296307E+00  5.5845034508260E-01
1  0.0000000000000E+00 -8.4769929964423E-10  1.7670222299260E-09
2  1.0000000000000E-02  1.2400225066101E-03 -7.2561341821734E-04
3  2.0000000000000E-02  4.9566234612383E-03 -2.8972017654145E-03
4  3.0000000000000E-02  1.1139395330764E-02 -6.4990093672873E-03
5  4.0000000000000E-02  1.9770966628767E-02 -1.1504778107053E-02
6  5.0000000000000E-02  3.0826965350827E-02 -1.7877753529783E-02
7  6.0000000000000E-02  4.4275971400527E-02 -2.5570701438489E-02
8  7.0000000000000E-02  6.0079461513258E-02 -3.4525942717396E-02
9  8.0000000000000E-02  7.8191751032652E-02 -4.4675415884900E-02
10  9.0000000000000E-02  9.8559937631755E-02 -5.5940778331180E-02
11  1.0000000000000E-01  1.2112385267734E-01 -6.8233558275364E-02
12  1.1000000000000E-01  1.4581602639519E-01 -8.1455370143196E-02
13  1.2000000000000E-01  1.7256167329235E-01 -9.5498206280782E-02
14  1.3000000000000E-01  2.0127870441996E-01 -1.1024481766164E-01
15  1.4000000000000E-01  2.3187777301051E-01 -1.2556919550108E-01
16  1.5000000000000E-01  2.6426235979443E-01 -1.4133716446514E-01
17  1.6000000000000E-01  2.9832890389414E-01 -1.5740709646513E-01
18  1.7000000000000E-01  3.3396698461531E-01 -1.7363075188843E-01
19  1.8000000000000E-01  3.7105955871392E-01 -1.8985425257262E-01
20  1.9000000000000E-01  4.0948325682885E-01 -2.0591918793023E-01
21  2.0000000000000E-01  4.4910874174801E-01 -2.2166385243807E-01
22  2.1000000000000E-01  4.8980113004374E-01 -2.3692460928786E-01
23  2.2000000000000E-01  5.3142047739199E-01 -2.5153737143039E-01
24  2.3000000000000E-01  5.7382232660587E-01 -2.6533918761956E-01
25  2.4000000000000E-01  6.1685831609378E-01 -2.7816991746224E-01
26  2.5000000000000E-01  6.6037684512562E-01 -2.8987397599827E-01
27  2.6000000000000E-01  7.0422379098477E-01 -3.0030212506185E-01
28  2.7000000000000E-01  7.4824327183005E-01 -3.0931328570320E-01
29  2.8000000000000E-01  7.9227844791764E-01 -3.1677634336357E-01
30  2.9000000000000E-01  8.3617235276732E-01 -3.2257191537905E-01
31  3.0000000000000E-01  8.7976874492499E-01 -3.2659404881222E-01
32  3.1000000000000E-01  9.2291297019919E-01 -3.2875181564078E-01
33  3.2000000000000E-01  9.6545282365259E-01 -3.2897077202025E-01
34  3.3000000000000E-01  1.0072394002295E+00 -3.2719424872563E-01
35  3.4000000000000E-01  1.0481279227091E+00 -3.2338444098894E-01
36  3.5000000000000E-01  1.0879785357025E+00 -3.1752326779907E-01
37  3.6000000000000E-01  1.1266570546644E+00 -3.0961297331177E-01
38  3.7000000000000E-01  1.1640356593675E+00 -2.9967644630993E-01
39  3.8000000000000E-01  1.1999935219873E+00 -2.8775723762311E-01
40  3.9000000000000E-01  1.2344173608531E+00 -2.7391926000520E-01
41  4.0000000000000E-01  1.2672019120350E+00 -2.5824616011397E-01
42  4.1000000000000E-01  1.2982503122218E+00 -2.4084035785372E-01
43  4.2000000000000E-01  1.3274743877991E+00 -2.2182175433607E-01
44  4.3000000000000E-01  1.3547948466169E+00 -2.0132611597749E-01
45  4.4000000000000E-01  1.3801413706234E+00 -1.7950314866999E-01
46  4.5000000000000E-01  1.4034526093026E+00 -1.5651428240679E-01
47  4.6000000000000E-01  1.4246760756484E+00 -1.3253019309128E-01
48  4.7000000000000E-01  1.4437679482100E+00 -1.0772809437049E-01
49  4.8000000000000E-01  1.4606927845086E+00 -8.2288838083007E-02
50  4.9000000000000E-01  1.4754231528200E+00 -5.6393867165145E-02
51  5.0000000000000E-01  1.4879391909067E+00 -3.0222069494595E-02
52  5.1000000000000E-01  1.4982281017302E+00 -3.9465850506216E-03
53  5.2000000000000E-01  1.5062835974467E+00  2.2268378170252E-02
54  5.3000000000000E-01  1.5121053040578E+00  4.8270661918215E-02
55  5.4000000000000E-01  1.5156981399268E+00  7.3923150452323E-02
56  5.5000000000000E-01  1.5170716819571E+00  9.9106579572659E-02
57  5.6000000000000E-01  1.5162395335464E+00  1.2372210425774E-01
58  5.7000000000000E-01  1.5132187084619E+00  1.4769356943433E-01
59  5.8000000000000E-01  1.5080290445285E+00  1.7096943172707E-01
60  5.9000000000000E-01  1.5006926604750E+00  1.9352428445744E-01
61  6.0000000000000E-01  1.4912334684492E+00  2.1535994364005E-01
62  6.1000000000000E-01  1.4796767536100E+00  2.3650605918971E-01
63  6.2000000000000E-01  1.4660488308334E+00  2.5702022291260E-01
64  6.3000000000000E-01  1.4503767869711E+00  2.7698755300147E-01
65  6.4000000000000E-01  1.4326883152859E+00  2.9651974355417E-01
66  6.5000000000000E-01  1.4130116467020E+00  3.1575357694328E-01
67  6.6000000000000E-01  1.3913755803797E+00  3.3484890651936E-01
68  6.7000000000000E-01  1.3678096138958E+00  3.5398612695994E-01
69  6.8000000000000E-01  1.3423441710298E+00  3.7336315939803E-01
70  6.9000000000000E-01  1.3150109228624E+00  3.9319198809389E-01
71  7.0000000000000E-01  1.2858431956333E+00  4.1369479466175E-01
72  7.1000000000000E-01  1.2548764566369E+00  4.3509974454564E-01
73  7.2000000000000E-01  1.2221488673874E+00  4.5763648837368E-01
74  7.3000000000000E-01  1.1877018914195E+00  4.8153144784011E-01
75  7.4000000000000E-01  1.1515809424409E+00  5.0700296171002E-01
76  7.5000000000000E-01  1.1138360571570E+00  5.3425637227380E-01
77  7.6000000000000E-01  1.0745225759889E+00  5.6347913597663E-01
78  7.7000000000000E-01  1.0337018141199E+00  5.9483604391434E-01
79  7.8000000000000E-01  9.9144170486880E-01  6.2846463834929E-01
80  7.9000000000000E-01  9.4781739731102E-01  6.6447091031282E-01
81  8.0000000000000E-01  9.0291179035697E-01  7.0292536070947E-01
82  8.1000000000000E-01  8.5681598616722E-01  7.4385950313482E-01
83  8.2000000000000E-01  8.0962964681320E-01  7.8726288091055E-01
84  8.3000000000000E-01  7.6146123948211E-01  8.3308066369904E-01
85  8.4000000000000E-01  7.1242815724680E-01  8.8121188059220E-01
86  8.5000000000000E-01  6.6265670445120E-01  9.3150833690697E-01
87  8.6000000000000E-01  6.1228193806387E-01  9.8377425122002E-01
88  8.7000000000000E-01  5.6144735888552E-01  1.0377666376220E+00
89  8.8000000000000E-01  5.1030444921439E-01  1.0931964459663E+00
90  8.9000000000000E-01  4.5901205642437E-01  1.1497304602494E+00
91  9.0000000000000E-01  4.0773562483972E-01  1.2069939424240E+00
92  9.1000000000000E-01  3.5664628123879E-01  1.2645739961461E+00
93  9.2000000000000E-01  3.0591978222747E-01  1.3220236124434E+00
94  9.3000000000000E-01  2.5573533453095E-01  1.3788663473090E+00
95  9.4000000000000E-01  2.0627430190054E-01  1.4346015699942E+00
96  9.5000000000000E-01  1.5771881476274E-01  1.4887102105461E+00
97  9.6000000000000E-01  1.1025030089698E-01  1.5406609260968E+00
98  9.7000000000000E-01  6.4047957266821E-02  1.5899165977623E+00
99  9.8000000000000E-01  1.9287184602307E-02  1.6359410639149E+00
100  9.9000000000000E-01 -2.3861992597926E-02  1.6782059911857E+00
101  1.0000000000000E+00 -6.5236497337099E-02  1.7161977819313E+00
102  1.0100000000000E+00 -1.0468173916941E-01  1.7494244161429E+00
103  1.0200000000000E+00 -1.4205309781294E-01  1.7774221269050E+00
104  1.0300000000000E+00 -1.7721732885733E-01  1.7997618115161E+00
105  1.0400000000000E+00 -2.1005387030170E-01  1.8160550852247E+00
106  1.0500000000000E+00 -2.4045603030679E-01  1.8259598911178E+00
107  1.0600000000000E+00 -2.6833203860276E-01  1.8291855878845E+00
108  1.0700000000000E+00 -2.9360594643103E-01  1.8254974468174E+00
109  1.0800000000000E+00 -3.1621836266173E-01  1.8147205002947E+00
110  1.0900000000000E+00 -3.3612701675765E-01  1.7967426958419E+00
111  1.1000000000000E+00 -3.5330714250163E-01  1.7715173225024E+00
112  1.1100000000000E+00 -3.6775167976675E-01  1.7390646892420E+00
113  1.1200000000000E+00 -3.7947129504345E-01  1.6994730482857E+00
114  1.1300000000000E+00 -3.8849422482184E-01  1.6528987691487E+00
115  1.1400000000000E+00 -3.9486594920842E-01  1.5995657814589E+00
116  1.1500000000000E+00 -3.9864870620677E-01  1.5397643159772E+00
117  1.1600000000000E+00 -3.9992085984904E-01  1.4738489832428E+00
118  1.1700000000000E+00 -3.9877613770170E-01  1.4022362375238E+00
119  1.1800000000000E+00 -3.9532275511897E-01  1.3254012799541E+00
120  1.1900000000000E+00 -3.8968244485854E-01  1.2438744584393E+00
121  1.2000000000000E+00 -3.8198941123475E-01  1.1582372228051E+00
122  1.2100000000000E+00 -3.7238922776221E-01  1.0691176913860E+00
123  1.2200000000000E+00 -3.6103769615537E-01  9.7718587945803E-01
124  1.2300000000000E+00 -3.4809968251044E-01  8.8314863029218E-01
125  1.2400000000000E+00 -3.3374794344935E-01  7.8774427594058E-01
126  1.2500000000000E+00 -3.1816195082911E-01  6.9173703666922E-01
127  1.2600000000000E+00 -3.0152671831576E-01  5.9591114526236E-01
128  1.2700000000000E+00 -2.8403162657892E-01  5.0106465479642E-01
129  1.2800000000000E+00 -2.6586923601615E-01  4.0800285566963E-01
130  1.2900000000000E+00 -2.4723406678521E-01  3.1753118977101E-01
131  1.3000000000000E+00 -2.2832131538493E-01  2.3044750619256E-01
132  1.3100000000000E+00 -2.0932546505534E-01  1.4753345372959E-01
133  1.3200000000000E+00 -1.9043873386978E-01  6.9544750613148E-02