Sm    ONCVPSP-4.0.1  r_core=   2.00717   1.60864   1.90196   1.60864
62.0000     16.0000      250626    zatom,zion,pspd
8      11   3     4   600     0    pspcod,pspxc,lmax,lloc,mmax,r2well
5.99000000 34.00000000  0.00000000    rchrg fchrg qchrg
2     2     2     2     0    nproj
1     1           extension_switch
0                         8.7470350753778E+00  2.9233937017010E-01
1  0.0000000000000E+00  3.8160141713206E-11 -2.3805180049408E-10
2  1.0000000000000E-02  4.5484855798137E-02 -1.8898581078061E-02
3  2.0000000000000E-02  9.0932352803671E-02 -3.7796375373978E-02
4  3.0000000000000E-02  1.3630505308074E-01 -5.6692028736604E-02
5  4.0000000000000E-02  1.8156536157279E-01 -7.5583058846260E-02
6  5.0000000000000E-02  2.2667545044709E-01 -9.4465307493363E-02
7  6.0000000000000E-02  2.7159718689797E-01 -1.1333241232283E-01
8  7.0000000000000E-02  3.1629206551654E-01 -1.3217530425148E-01
9  8.0000000000000E-02  3.6072114629677E-01 -1.5098173652772E-01
10  9.0000000000000E-02  4.0484499930036E-01 -1.6973585110893E-01
11  1.0000000000000E-01  4.4862365694732E-01 -1.8841778768513E-01
12  1.1000000000000E-01  4.9201657483503E-01 -2.0700334028040E-01
13  1.2000000000000E-01  5.3498260191685E-01 -2.2546366591933E-01
14  1.3000000000000E-01  5.7747996079271E-01 -2.4376504935905E-01
15  1.4000000000000E-01  6.1946623877826E-01 -2.6186872736129E-01
16  1.5000000000000E-01  6.6089839032828E-01 -2.7973077541844E-01
17  1.6000000000000E-01  7.0173275129301E-01 -2.9730205925845E-01
18  1.7000000000000E-01  7.4192506538538E-01 -3.1452825283820E-01
19  1.8000000000000E-01  7.8143052313213E-01 -3.3134992390206E-01
20  1.9000000000000E-01  8.2020381347406E-01 -3.4770268753495E-01
21  2.0000000000000E-01  8.5819918807127E-01 -3.6351742748380E-01
22  2.1000000000000E-01  8.9537053825776E-01 -3.7872058436376E-01
23  2.2000000000000E-01  9.3167148447864E-01 -3.9323450921058E-01
24  2.3000000000000E-01  9.6705547793235E-01 -4.0697788019571E-01
25  2.4000000000000E-01  1.0014759140304E+00 -4.1986617969001E-01
26  2.5000000000000E-01  1.0348862571802E+00 -4.3181222825042E-01
27  2.6000000000000E-01  1.0672401762910E+00 -4.4272677152100E-01
28  2.7000000000000E-01  1.0984916903043E+00 -4.5251911548457E-01
29  2.8000000000000E-01  1.1285953229522E+00 -4.6109780498368E-01
30  2.9000000000000E-01  1.1575062658568E+00 -4.6837133995271E-01
31  3.0000000000000E-01  1.1851805490003E+00 -4.7424892337036E-01
32  3.1000000000000E-01  1.2115752175166E+00 -4.7864123455873E-01
33  3.2000000000000E-01  1.2366485136834E+00 -4.8146122112444E-01
34  3.3000000000000E-01  1.2603600629349E+00 -4.8262490256322E-01
35  3.4000000000000E-01  1.2826710626560E+00 -4.8205217833281E-01
36  3.5000000000000E-01  1.3035444724771E+00 -4.7966763304419E-01
37  3.6000000000000E-01  1.3229452047519E+00 -4.7540133132948E-01
38  3.7000000000000E-01  1.3408403138708E+00 -4.6918959491502E-01
39  3.8000000000000E-01  1.3571991830513E+00 -4.6097575446679E-01
40  3.9000000000000E-01  1.3719937072341E+00 -4.5071086887439E-01
41  4.0000000000000E-01  1.3851984707200E+00 -4.3835440480729E-01
42  4.1000000000000E-01  1.3967909181959E+00 -4.2387486960628E-01
43  4.2000000000000E-01  1.4067515178198E+00 -4.0725039086474E-01
44  4.3000000000000E-01  1.4150639150683E+00 -3.8846923640704E-01
45  4.4000000000000E-01  1.4217150760947E+00 -3.6753026878175E-01
46  4.5000000000000E-01  1.4266954193954E+00 -3.4444332885215E-01
47  4.6000000000000E-01  1.4299989346456E+00 -3.1922954358394E-01
48  4.7000000000000E-01  1.4316232876341E+00 -2.9192155369448E-01
49  4.8000000000000E-01  1.4315699103069E+00 -2.6256365743563E-01
50  4.9000000000000E-01  1.4298440750132E+00 -2.3121186743040E-01
51  5.0000000000000E-01  1.4264549521430E+00 -1.9793387816263E-01
52  5.1000000000000E-01  1.4214156504429E+00 -1.6280894243038E-01
53  5.2000000000000E-01  1.4147432394050E+00 -1.2592765580489E-01
54  5.3000000000000E-01  1.4064587532310E+00 -8.7391648886978E-02
55  5.4000000000000E-01  1.3965871759922E+00 -4.7313187915072E-02
56  5.5000000000000E-01  1.3851574077235E+00 -5.8146850439240E-03
57  5.6000000000000E-01  1.3722022113099E+00  3.6971879619304E-02
58  5.7000000000000E-01  1.3577581401495E+00  8.0905621376814E-02
59  5.8000000000000E-01  1.3418654467010E+00  1.2583749610881E-01
60  5.9000000000000E-01  1.3245679721483E+00  1.7161112293009E-01
61  6.0000000000000E-01  1.3059130175411E+00  2.1806367931444E-01
62  6.1000000000000E-01  1.2859511968906E+00  2.6502686299322E-01
63  6.2000000000000E-01  1.2647362728250E+00  3.1232791430042E-01
64  6.3000000000000E-01  1.2423249755225E+00  3.5979069203964E-01
65  6.4000000000000E-01  1.2187768057599E+00  4.0723679540238E-01
66  6.5000000000000E-01  1.1941538230189E+00  4.5448672396589E-01
67  6.6000000000000E-01  1.1685204197016E+00  5.0136106735938E-01
68  6.7000000000000E-01  1.1419430826036E+00  5.4768171579917E-01
69  6.8000000000000E-01  1.1144901428867E+00  5.9327308237443E-01
70  6.9000000000000E-01  1.0862315158755E+00  6.3796332770494E-01
71  7.0000000000000E-01  1.0572384320858E+00  6.8158557740316E-01
72  7.1000000000000E-01  1.0275831609549E+00  7.2397912265231E-01
73  7.2000000000000E-01  9.9733872881089E-01  7.6499059416024E-01
74  7.3000000000000E-01  9.6657863266585E-01  8.0447509977227E-01
75  7.4000000000000E-01  9.3537655146269E-01  8.4229731611690E-01
76  7.5000000000000E-01  9.0380605643640E-01  8.7833252482611E-01
77  7.6000000000000E-01  8.7194032227446E-01  9.1246758410654E-01
78  7.7000000000000E-01  8.3985184077318E-01  9.4460182674641E-01
79  7.8000000000000E-01  8.0761213868960E-01  9.7464787601860E-01
80  7.9000000000000E-01  7.7529150148036E-01  1.0025323713832E+00
81  8.0000000000000E-01  7.4295870460116E-01  1.0281965964019E+00
82  8.1000000000000E-01  7.1068075401128E-01  1.0515970018456E+00
83  8.2000000000000E-01  6.7852263748953E-01  1.0727056176074E+00
84  8.3000000000000E-01  6.4654708831840E-01  1.0915103477170E+00
85  8.4000000000000E-01  6.1481436283448E-01  1.1080151434908E+00
86  8.5000000000000E-01  5.8338203327448E-01  1.1222400506386E+00
87  8.6000000000000E-01  5.5230479726748E-01  1.1342211269768E+00
88  8.7000000000000E-01  5.2163430523679E-01  1.1440102282705E+00
89  8.8000000000000E-01  4.9141900687758E-01  1.1516746606312E+00
90  8.9000000000000E-01  4.6170401777136E-01  1.1572966988387E+00
91  9.0000000000000E-01  4.3253100708450E-01  1.1609729709162E+00
92  9.1000000000000E-01  4.0393810717615E-01  1.1628137102803E+00
93  9.2000000000000E-01  3.7595984581187E-01  1.1629418777898E+00
94  9.3000000000000E-01  3.4862710154260E-01  1.1614921570362E+00
95  9.4000000000000E-01  3.2196708266580E-01  1.1586098272520E+00
96  9.5000000000000E-01  2.9600333003610E-01  1.1544495192359E+00
97  9.6000000000000E-01  2.7075574383813E-01  1.1491738607365E+00
98  9.7000000000000E-01  2.4624063427392E-01  1.1429520187560E+00
99  9.8000000000000E-01  2.2247079595270E-01  1.1359581472584E+00
100  9.9000000000000E-01  1.9945560560239E-01  1.1283697497705E+00
101  1.0000000000000E+00  1.7720114254975E-01  1.1203659673519E+00
102  1.0100000000000E+00  1.5571033124189E-01  1.1121258033770E+00
103  1.0200000000000E+00  1.3498310490464E-01  1.1038262975063E+00
104  1.0300000000000E+00  1.1501658925555E-01  1.0956406621390E+00
105  1.0400000000000E+00  9.5805305010660E-02  1.0877363955007E+00
106  1.0500000000000E+00  7.7341387746269E-02  1.0802733863586E+00
107  1.0600000000000E+00  5.9614823499759E-02  1.0734020261330E+00
108  1.0700000000000E+00  4.2613698319396E-02  1.0672613449094E+00
109  1.0800000000000E+00  2.6324459801446E-02  1.0619771885259E+00
110  1.0900000000000E+00  1.0732188486436E-02  1.0576604545206E+00
111  1.1000000000000E+00 -4.1791231747090E-03  1.0544054052584E+00
112  1.1100000000000E+00 -1.8426286728139E-02  1.0522880770166E+00
113  1.1200000000000E+00 -3.2026631086841E-02  1.0513648041750E+00
114  1.1300000000000E+00 -4.4997716087385E-02  1.0516708779300E+00
115  1.1400000000000E+00 -5.7357049081778E-02  1.0532193591187E+00
116  1.1500000000000E+00 -6.9121807523483E-02  1.0560000647845E+00
117  1.1600000000000E+00 -8.0308570601275E-02  1.0599787480337E+00
118  1.1700000000000E+00 -9.0933063052587E-02  1.0650964905068E+00
119  1.1800000000000E+00 -1.0100991434578E-01  1.0712693264031E+00
120  1.1900000000000E+00 -1.1055243645680E-01  1.0783881164420E+00
121  1.2000000000000E+00 -1.1957242347710E-01  1.0863186893930E+00
122  1.2100000000000E+00 -1.2807997627397E-01  1.0949022678543E+00
123  1.2200000000000E+00 -1.3608335537837E-01  1.1039561937674E+00
124  1.2300000000000E+00 -1.4358886519668E-01  1.1132749677265E+00
125  1.2400000000000E+00 -1.5060077252707E-01  1.1226316144212E+00
126  1.2500000000000E+00 -1.5712126220652E-01  1.1317793845492E+00
127  1.2600000000000E+00 -1.6315043251613E-01  1.1404538011992E+00
128  1.2700000000000E+00 -1.6868633272655E-01  1.1483750560055E+00
129  1.2800000000000E+00 -1.7372504486952E-01  1.1552507573159E+00
130  1.2900000000000E+00 -1.7826081146952E-01  1.1607790291120E+00
131  1.3000000000000E+00 -1.8228621055788E-01  1.1646519554784E+00
132  1.3100000000000E+00 -1.8579237881624E-01  1.1665593609869E+00
133  1.3200000000000E+00 -1.8876928315286E-01  1.1661929124112E+00
134  1.3300000000000E+00 -1.9120604039437E-01  1.1632505216438E+00
135  1.3400000000000E+00 -1.9309128407809E-01  1.1574410235554E+00
136  1.3500000000000E+00 -1.9441357654919E-01  1.1484890957583E+00
137  1.3600000000000E+00 -1.9516186368973E-01  1.1361403797127E+00
138  1.3700000000000E+00 -1.9532596863819E-01  1.1201667543726E+00
139  1.3800000000000E+00 -1.9489711978215E-01  1.1003717044953E+00
140  1.3900000000000E+00 -1.9386850712716E-01  1.0765957158360E+00
141  1.4000000000000E+00 -1.9223585984026E-01  1.0487216185736E+00
142  1.4100000000000E+00 -1.8999803634374E-01  1.0166797884846E+00
143  1.4200000000000E+00 -1.8715761677983E-01  9.8045310251400E-01
144  1.4300000000000E+00 -1.8372148596704E-01  9.4008153135338E-01
145  1.4400000000000E+00 -1.7970139313328E-01  8.9566623651838E-01
146  1.4500000000000E+00 -1.7511447270080E-01  8.4737302288351E-01
147  1.4600000000000E+00 -1.6998370823639E-01  7.9543497988545E-01
148  1.4700000000000E+00 -1.6433831933677E-01  7.4015412537650E-01
149  1.4800000000000E+00 -1.5821404869072E-01  6.8190184538254E-01
150  1.4900000000000E+00 -1.5165332383137E-01  6.2111790066491E-01
151  1.5000000000000E+00 -1.4470526516391E-01  5.5830774700051E-01
152  1.5100000000000E+00 -1.3742550869930E-01  4.9403789025167E-01
153  1.5200000000000E+00 -1.2987580853577E-01  4.2892896954534E-01
154  1.5300000000000E+00 -1.2212338050627E-01  3.6364623219459E-01
155  1.5400000000000E+00 -1.1423994451911E-01  2.9888703212109E-01
156  1.5500000000000E+00 -1.0630041895929E-01  2.3536494944720E-01
157  1.5600000000000E+00 -9.8381216070391E-02  1.7379009247048E-01
158  1.5700000000000E+00 -9.0558082486320E-02  1.1484510428379E-01
159  1.5800000000000E+00 -8.2903424013487E-02  5.9156354728315E-02
160  1.5900000000000E+00 -7.5483046098066E-02  7.2597284134666E-03
161  1.6000000000000E+00 -6.8352269179495E-02 -4.0439243374959E-02
162  1.6100000000000E+00 -6.1551161428294E-02 -8.3713642777385E-02
163  1.6200000000000E+00 -5.5101097208814E-02 -1.2254601212915E-01
164  1.6300000000000E+00 -4.9012105172239E-02 -1.5703485441528E-01
165  1.6400000000000E+00 -4.3291181389255E-02 -1.8729578327417E-01
166  1.6500000000000E+00 -3.7942678890131E-02 -2.1345725521440E-01
167  1.6600000000000E+00 -3.2968419967004E-02 -2.3565960724560E-01
168  1.6700000000000E+00 -2.8367781476814E-02 -2.5405450266568E-01
169  1.6800000000000E+00 -2.4137790046089E-02 -2.6880433268714E-01
170  1.6900000000000E+00 -2.0273230367687E-02 -2.8008153525367E-01
171  1.7000000000000E+00 -1.6766764766349E-02 -2.8806784895102E-01
172  1.7100000000000E+00 -1.3609063520632E-02 -2.9295350411607E-01
173  1.7200000000000E+00 -1.0788945329976E-02 -2.9493635403296E-01
174  1.7300000000000E+00 -8.2935271285340E-03 -2.9422095080481E-01
175  1.7400000000000E+00 -6.1083826985586E-03 -2.9101756759326E-01
176  1.7500000000000E+00 -4.2177093368818E-03 -2.8554117080471E-01
177  1.7600000000000E+00 -2.6045003598343E-03 -2.7801036107001E-01
178  1.7700000000000E+00 -1.2507253031559E-03 -2.6864625877879E-01
179  1.7800000000000E+00 -1.3751362124258E-04 -2.5767137355558E-01
180  1.7900000000000E+00  7.5465710917794E-04 -2.4530844214010E-01
181  1.8000000000000E+00  1.4457703572694E-03 -2.3177924939315E-01
182  1.8100000000000E+00  1.9560781969932E-03 -2.1730343804590E-01
183  1.8200000000000E+00  2.3059084228136E-03 -2.0209731432844E-01
184  1.8300000000000E+00  2.5154724376048E-03 -1.8637265711110E-01
185  1.8400000000000E+00  2.6046750925221E-03 -1.7033553785775E-01
186  1.8500000000000E+00  2.5929276945345E-03 -1.5418515910747E-01
187  1.8600000000000E+00  2.4989653764472E-03 -1.3811271907414E-01
188  1.8700000000000E+00  2.3406712792513E-03 -1.2230031843178E-01
189  1.8800000000000E+00  2.1348984543557E-03 -1.0691984807382E-01
190  1.8900000000000E+00  1.8973244908217E-03 -9.2132091729888E-02
191  1.9000000000000E+00  1.6422918414478E-03 -7.8085726119392E-02
192  1.9100000000000E+00  1.3821937407589E-03 -6.4913299161816E-02
193  1.9200000000000E+00  1.1251137968406E-03 -5.2715189202444E-02
194  1.9300000000000E+00  8.8020426630588E-04 -4.1595767309001E-02
195  1.9400000000000E+00  6.5696467345187E-04 -3.1658968235484E-02
196  1.9500000000000E+00  4.6233853027206E-04 -2.2989017721058E-02
197  1.9600000000000E+00  3.0111032376523E-04 -1.5653027521660E-02
198  1.9700000000000E+00  1.7577063998511E-04 -9.7000920477681E-03
199  1.9800000000000E+00  8.6482838238458E-05 -5.1627859568685E-03
200  1.9900000000000E+00  3.0825764249061E-05 -2.0341602064927E-03
201  2.0000000000000E+00  5.1681875604695E-06 -3.9289061673296E-04
202  2.0100000000000E+00 -4.9830475072848E-07  4.2191530373807E-05
203  2.0200000000000E+00  4.9295934762357E-08 -3.8648547655893E-06
204  2.03  0. -0.
205  2.04 -0.  0.
206  2.05 -0.  0.
207  2.06  0.  0.
208  2.07  0.  0.
209  2.08  0.  0.
210  2.09  0.  0.
211  2.10  0.  0.
212  2.11  0.  0.
213  2.12  0.  0.
214  2.13  0.  0.
215  2.14  0.  0.
216  2.15  0.  0.
217  2.16  0.  0.
218  2.17  0.  0.
219  2.18  0.  0.
220  2.19  0.  0.
221  2.20  0.  0.
222  2.21  0.  0.
223  2.22  0.  0.
224  2.23  0.  0.
225  2.24  0.  0.
226  2.25  0.  0.
227  2.26  0.  0.
228  2.27  0.  0.
229  2.28  0.  0.
230  2.29  0.  0.
231  2.30  0.  0.
232  2.31  0.  0.
233  2.32  0.  0.
234  2.33  0.  0.
235  2.34  0.  0.
236  2.35  0.  0.
237  2.36  0.  0.
238  2.37  0.  0.
239  2.38  0.  0.
240  2.39  0.  0.
241  2.40  0.  0.
242  2.41  0.  0.
243  2.42  0.  0.
244  2.43  0.  0.
245  2.44  0.  0.
246  2.45  0.  0.
247  2.46  0.  0.
248  2.47  0.  0.
249  2.48  0.  0.
250  2.49  0.  0.
251  2.50  0.  0.
252  2.51  0.  0.
253  2.52  0.  0.
254  2.53  0.  0.
255  2.54  0.  0.
256  2.55  0.  0.
257  2.56  0.  0.
258  2.57  0.  0.
259  2.58  0.  0.
260  2.59  0.  0.
261  2.60  0.  0.
262  2.61  0.  0.
263  2.62  0.  0.
264  2.63  0.  0.
265  2.64  0.  0.
266  2.65  0.  0.
267  2.66  0.  0.
268  2.67  0.  0.
269  2.68  0.  0.
270  2.69  0.  0.
271  2.70  0.  0.
272  2.71  0.  0.
273  2.72  0.  0.
274  2.73  0.  0.
275  2.74  0.  0.
276  2.75  0.  0.
277  2.76  0.  0.
278  2.77  0.  0.
279  2.78  0.  0.
280  2.79  0.  0.
281  2.80  0.  0.
282  2.81  0.  0.
283  2.82  0.  0.
284  2.83  0.  0.
285  2.84  0.  0.
286  2.85  0.  0.
287  2.86  0.  0.
288  2.87  0.  0.
289  2.88  0.  0.
290  2.89  0.  0.
291  2.90  0.  0.
292  2.91  0.  0.
293  2.92  0.  0.
294  2.93  0.  0.
295  2.94  0.  0.
296  2.95  0.  0.
297  2.96  0.  0.
298  2.97  0.  0.
299  2.98  0.  0.
300  2.99  0.  0.
301  3.00  0.  0.
302  3.01  0.  0.
303  3.02  0.  0.
304  3.03  0.  0.
305  3.04  0.  0.
306  3.05  0.  0.
307  3.06  0.  0.
308  3.07  0.  0.
309  3.08  0.  0.
310  3.09  0.  0.
311  3.10  0.  0.
312  3.11  0.  0.
313  3.12  0.  0.
314  3.13  0.  0.
315  3.14  0.  0.
316  3.15  0.  0.
317  3.16  0.  0.
318  3.17  0.  0.
319  3.18  0.  0.
320  3.19  0.  0.
321  3.20  0.  0.
322  3.21  0.  0.
323  3.22  0.  0.
324  3.23  0.  0.
325  3.24  0.  0.
326  3.25  0.  0.
327  3.26  0.  0.
328  3.27  0.  0.
329  3.28  0.  0.
330  3.29  0.  0.
331  3.30  0.  0.
332  3.31  0.  0.
333  3.32  0.  0.
334  3.33  0.  0.
335  3.34  0.  0.
336  3.35  0.  0.
337  3.36  0.  0.
338  3.37  0.  0.
339  3.38  0.  0.
340  3.39  0.  0.
341  3.40  0.  0.
342  3.41  0.  0.
343  3.42  0.  0.
344  3.43  0.  0.
345  3.44  0.  0.
346  3.45  0.  0.
347  3.46  0.  0.
348  3.47  0.  0.
349  3.48  0.  0.
350  3.49  0.  0.
351  3.50  0.  0.
352  3.51  0.  0.
353  3.52  0.  0.
354  3.53  0.  0.
355  3.54  0.  0.
356  3.55  0.  0.
357  3.56  0.  0.
358  3.57  0.  0.
359  3.58  0.  0.
360  3.59  0.  0.
361  3.60  0.  0.
362  3.61  0.  0.
363  3.62  0.  0.
364  3.63  0.  0.
365  3.64  0.  0.
366  3.65  0.  0.
367  3.66  0.  0.
368  3.67  0.  0.
369  3.68  0.  0.
370  3.69  0.  0.
371  3.70  0.  0.
372  3.71  0.  0.
373  3.72  0.  0.
374  3.73  0.  0.
375  3.74  0.  0.
376  3.75  0.  0.
377  3.76  0.  0.
378  3.77  0.  0.
379  3.78  0.  0.
380  3.79  0.  0.
381  3.80  0.  0.
382  3.81  0.  0.
383  3.82  0.  0.
384  3.83  0.  0.
385  3.84  0.  0.
386  3.85  0.  0.
387  3.86  0.  0.
388  3.87  0.  0.
389  3.88  0.  0.
390  3.89  0.  0.
391  3.90  0.  0.
392  3.91  0.  0.
393  3.92  0.  0.
394  3.93  0.  0.
395  3.94  0.  0.
396  3.95  0.  0.
397  3.96  0.  0.
398  3.97  0.  0.
399  3.98  0.  0.
400  3.99  0.  0.
401  4.00  0.  0.
402  4.01  0.  0.
403  4.02  0.  0.
404  4.03  0.  0.
405  4.04  0.  0.
406  4.05  0.  0.
407  4.06  0.  0.
408  4.07  0.  0.
409  4.08  0.  0.
410  4.09  0.  0.
411  4.10  0.  0.
412  4.11  0.  0.
413  4.12  0.  0.
414  4.13  0.  0.
415  4.14  0.  0.
416  4.15  0.  0.
417  4.16  0.  0.
418  4.17  0.  0.
419  4.18  0.  0.
420  4.19  0.  0.
421  4.20  0.  0.
422  4.21  0.  0.
423  4.22  0.  0.
424  4.23  0.  0.
425  4.24  0.  0.
426  4.25  0.  0.
427  4.26  0.  0.
428  4.27  0.  0.
429  4.28  0.  0.
430  4.29  0.  0.
431  4.30  0.  0.
432  4.31  0.  0.
433  4.32  0.  0.
434  4.33  0.  0.
435  4.34  0.  0.
436  4.35  0.  0.
437  4.36  0.  0.
438  4.37  0.  0.
439  4.38  0.  0.
440  4.39  0.  0.
441  4.40  0.  0.
442  4.41  0.  0.
443  4.42  0.  0.
444  4.43  0.  0.
445  4.44  0.  0.
446  4.45  0.  0.
447  4.46  0.  0.
448  4.47  0.  0.
449  4.48  0.  0.
450  4.49  0.  0.
451  4.50  0.  0.
452  4.51  0.  0.
453  4.52  0.  0.
454  4.53  0.  0.
455  4.54  0.  0.
456  4.55  0.  0.
457  4.56  0.  0.
458  4.57  0.  0.
459  4.58  0.  0.
460  4.59  0.  0.
461  4.60  0.  0.
462  4.61  0.  0.
463  4.62  0.  0.
464  4.63  0.  0.
465  4.64  0.  0.
466  4.65  0.  0.
467  4.66  0.  0.
468  4.67  0.  0.
469  4.68  0.  0.
470  4.69  0.  0.
471  4.70  0.  0.
472  4.71  0.  0.
473  4.72  0.  0.
474  4.73  0.  0.
475  4.74  0.  0.
476  4.75  0.  0.
477  4.76  0.  0.
478  4.77  0.  0.
479  4.78  0.  0.
480  4.79  0.  0.
481  4.80  0.  0.
482  4.81  0.  0.
483  4.82  0.  0.
484  4.83  0.  0.
485  4.84  0.  0.
486  4.85  0.  0.
487  4.86  0.  0.
488  4.87  0.  0.
489  4.88  0.  0.
490  4.89  0.  0.
491  4.90  0.  0.
492  4.91  0.  0.
493  4.92  0.  0.
494  4.93  0.  0.
495  4.94  0.  0.
496  4.95  0.  0.
497  4.96  0.  0.
498  4.97  0.  0.
499  4.98  0.  0.
500  4.99  0.  0.
501  5.00  0.  0.
502  5.01  0.  0.
503  5.02  0.  0.
504  5.03  0.  0.
505  5.04  0.  0.
506  5.05  0.  0.
507  5.06  0.  0.
508  5.07  0.  0.
509  5.08  0.  0.
510  5.09  0.  0.
511  5.10  0.  0.
512  5.11  0.  0.
513  5.12  0.  0.
514  5.13  0.  0.
515  5.14  0.  0.
516  5.15  0.  0.
517  5.16  0.  0.
518  5.17  0.  0.
519  5.18  0.  0.
520  5.19  0.  0.
521  5.20  0.  0.
522  5.21  0.  0.
523  5.22  0.  0.
524  5.23  0.  0.
525  5.24  0.  0.
526  5.25  0.  0.
527  5.26  0.  0.
528  5.27  0.  0.
529  5.28  0.  0.
530  5.29  0.  0.
531  5.30  0.  0.
532  5.31  0.  0.
533  5.32  0.  0.
534  5.33  0.  0.
535  5.34  0.  0.
536  5.35  0.  0.
537  5.36  0.  0.
538  5.37  0.  0.
539  5.38  0.  0.
540  5.39  0.  0.
541  5.40  0.  0.
542  5.41  0.  0.
543  5.42  0.  0.
544  5.43  0.  0.
545  5.44  0.  0.
546  5.45  0.  0.
547  5.46  0.  0.
548  5.47  0.  0.
549  5.48  0.  0.
550  5.49  0.  0.
551  5.50  0.  0.
552  5.51  0.  0.
553  5.52  0.  0.
554  5.53  0.  0.
555  5.54  0.  0.
556  5.55  0.  0.
557  5.56  0.  0.
558  5.57  0.  0.
559  5.58  0.  0.
560  5.59  0.  0.
561  5.60  0.  0.
562  5.61  0.  0.
563  5.62  0.  0.
564  5.63  0.  0.
565  5.64  0.  0.
566  5.65  0.  0.
567  5.66  0.  0.
568  5.67  0.  0.
569  5.68  0.  0.
570  5.69  0.  0.
571  5.70  0.  0.
572  5.71  0.  0.
573  5.72  0.  0.
574  5.73  0.  0.
575  5.74  0.  0.
576  5.75  0.  0.
577  5.76  0.  0.
578  5.77  0.  0.
579  5.78  0.  0.
580  5.79  0.  0.
581  5.80  0.  0.
582  5.81  0.  0.
583  5.82  0.  0.
584  5.83  0.  0.
585  5.84  0.  0.
586  5.85  0.  0.
587  5.86  0.  0.
588  5.87  0.  0.
589  5.88  0.  0.
590  5.89  0.  0.
591  5.90  0.  0.
592  5.91  0.  0.
593  5.92  0.  0.
594  5.93  0.  0.
595  5.94  0.  0.
596  5.95  0.  0.
597  5.96  0.  0.
598  5.97  0.  0.
599  5.98  0.  0.
600  5.99  0.  0.
1                         5.2052684379382E+00  8.2096542437034E-01
1  0.0000000000000E+00  1.2786655623209E-09 -1.3475681938380E-08
2  1.0000000000000E-02  9.6070562395554E-04  8.1069244110716E-04
3  2.0000000000000E-02  3.8391223863079E-03  3.2523321179985E-03
4  3.0000000000000E-02  8.6241899507301E-03  7.3532507462332E-03
5  4.0000000000000E-02  1.5297606973234E-02  1.3159491370947E-02
6  5.0000000000000E-02  2.3834027290782E-02  2.0733071495832E-02
7  6.0000000000000E-02  3.4201329367134E-02  3.0149606583271E-02
8  7.0000000000000E-02  4.6360953903116E-02  4.1495347702590E-02
9  8.0000000000000E-02  6.0268303239820E-02  5.4863700579010E-02
10  9.0000000000000E-02  7.5873195032163E-02  7.0351305405749E-02
11  1.0000000000000E-01  9.3120361669816E-02  8.8053767276841E-02
12  1.1000000000000E-01  1.1194998609325E-01  1.0806113576148E-01
13  1.2000000000000E-01  1.3229826401111E-01  1.3045323879168E-01
14  1.3000000000000E-01  1.5409798208489E-01  1.5529498052975E-01
15  1.4000000000000E-01  1.7727910141696E-01  1.8263171512295E-01
16  1.5000000000000E-01  2.0176933566366E-01  2.1248480818141E-01
17  1.6000000000000E-01  2.2749471329756E-01  2.4484749542397E-01
18  1.7000000000000E-01  2.5438011395787E-01  2.7968114325770E-01
19  1.8000000000000E-01  2.8234976944931E-01  3.1691200917385E-01
20  1.9000000000000E-01  3.1132772076403E-01  3.5642859087701E-01
21  2.0000000000000E-01  3.4123822349437E-01  3.9807964218372E-01
22  2.1000000000000E-01  3.7200609515607E-01  4.4167292113415E-01
23  2.2000000000000E-01  4.0355699923056E-01  4.8697472169581E-01
24  2.3000000000000E-01  4.3581766213512E-01  5.3371022516966E-01
25  2.4000000000000E-01  4.6871602081380E-01  5.8156469123221E-01
26  2.5000000000000E-01  5.0218130018092E-01  6.3018549177476E-01
27  2.6000000000000E-01  5.3614402121162E-01  6.7918497366126E-01
28  2.7000000000000E-01  5.7053594202918E-01  7.2814411955440E-01
29  2.8000000000000E-01  6.0528993585533E-01  7.7661695939054E-01
30  2.9000000000000E-01  6.4033981113686E-01  8.2413566924944E-01
31  3.0000000000000E-01  6.7562008050930E-01  8.7021627958165E-01
32  3.1000000000000E-01  7.1106568647895E-01  9.1436490132664E-01
33  3.2000000000000E-01  7.4661169277189E-01  9.5608436665276E-01
34  3.3000000000000E-01  7.8219295119027E-01  9.9488117112385E-01
35  3.4000000000000E-01  8.1774375451213E-01  1.0302725962587E+00
36  3.5000000000000E-01  8.5319748645585E-01  1.0617938858713E+00
37  3.6000000000000E-01  8.8848627999117E-01  1.0890053463929E+00
38  3.7000000000000E-01  9.2354069530915E-01  1.1114992406698E+00
39  3.8000000000000E-01  9.5828942855852E-01  1.1289063465340E+00
40  3.9000000000000E-01  9.9265906201869E-01  1.1409020557598E+00
41  4.0000000000000E-01  1.0265738657145E+00  1.1472118957783E+00
42  4.1000000000000E-01  1.0599556595957E+00  1.1476163656203E+00
43  4.2000000000000E-01  1.0927237443204E+00  1.1419549888525E+00
44  4.3000000000000E-01  1.1247949074129E+00  1.1301294995510E+00
45  4.4000000000000E-01  1.1560835101382E+00  1.1121060923994E+00
46  4.5000000000000E-01  1.1865016588707E+00  1.0879166845202E+00
47  4.6000000000000E-01  1.2159594630637E+00  1.0576591543600E+00
48  4.7000000000000E-01  1.2443653801816E+00  1.0214965415056E+00
49  4.8000000000000E-01  1.2716266461663E+00  9.7965521037866E-01
50  4.9000000000000E-01  1.2976497882155E+00  9.3242199996333E-01
51  5.0000000000000E-01  1.3223412148788E+00  8.8014040071534E-01
52  5.1000000000000E-01  1.3456078767700E+00  8.2320581819834E-01
53  5.2000000000000E-01  1.3673579895812E+00  7.6206000044913E-01
54  5.3000000000000E-01  1.3875018095958E+00  6.9718472223759E-01
55  5.4000000000000E-01  1.4059524505741E+00  6.2909483393895E-01
56  5.5000000000000E-01  1.4226267297378E+00  5.5833079538269E-01
57  5.6000000000000E-01  1.4374460296511E+00  4.8545082552105E-01
58  5.7000000000000E-01  1.4503371620939E+00  4.1102280685304E-01
59  5.8000000000000E-01  1.4612332195682E+00  3.3561608906469E-01
60  5.9000000000000E-01  1.4700743998858E+00  2.5979333917796E-01
61  6.0000000000000E-01  1.4768087893589E+00  1.8410258555504E-01
62  6.1000000000000E-01  1.4813930904572E+00  1.0906960035664E-01
63  6.2000000000000E-01  1.4837932804058E+00  3.5190759528773E-02
64  6.3000000000000E-01  1.4839851880657E+00 -3.7073488830385E-02
65  6.4000000000000E-01  1.4819549775559E+00 -1.0730442765932E-01
66  6.5000000000000E-01  1.4776995284184E+00 -1.7513003878387E-01
67  6.6000000000000E-01  1.4712267036789E+00 -2.4022904386049E-01
68  6.7000000000000E-01  1.4625554988882E+00 -3.0233394404526E-01
69  6.8000000000000E-01  1.4517160671110E+00 -3.6123300279494E-01
70  6.9000000000000E-01  1.4387496168290E+00 -4.1677113619878E-01
71  7.0000000000000E-01  1.4237081818085E+00 -4.6884969608650E-01
72  7.1000000000000E-01  1.4066542641082E+00 -5.1742515246014E-01
73  7.2000000000000E-01  1.3876603535380E+00 -5.6250670315690E-01
74  7.3000000000000E-01  1.3668083289783E+00 -6.0415285965196E-01
75  7.4000000000000E-01  1.3441887489968E+00 -6.4246707815185E-01
76  7.5000000000000E-01  1.3199000411178E+00 -6.7759252421142E-01
77  7.6000000000000E-01  1.2940476008694E+00 -7.0970607665395E-01
78  7.7000000000000E-01  1.2667428133245E+00 -7.3901169223250E-01
79  7.8000000000000E-01  1.2381020112294E+00 -7.6573326592198E-01
80  7.9000000000000E-01  1.2082453849550E+00 -7.9010713269383E-01
81  8.0000000000000E-01  1.1772958603831E+00 -8.1237436486591E-01
82  8.1000000000000E-01  1.1453779614403E+00 -8.3277302445189E-01
83  8.2000000000000E-01  1.1126166742954E+00 -8.5153053222636E-01
84  8.3000000000000E-01  1.0791363302440E+00 -8.6885631439979E-01
85  8.4000000000000E-01  1.0450595240034E+00 -8.8493488384520E-01
86  8.5000000000000E-01  1.0105060835430E+00 -8.9991950578199E-01
87  8.6000000000000E-01  9.7559210668985E-01 -9.1392658780204E-01
88  8.7000000000000E-01  9.4042907858073E-01 -9.2703092128624E-01
89  8.8000000000000E-01  9.0512308261482E-01 -9.3926188581818E-01
90  8.9000000000000E-01  8.6977411590777E-01 -9.5060071042831E-01
91  9.0000000000000E-01  8.3447551839506E-01 -9.6097886571243E-01
92  9.1000000000000E-01  7.9931352271021E-01 -9.7027763941982E-01
93  9.2000000000000E-01  7.6436692980933E-01 -9.7832892539299E-01
94  9.3000000000000E-01  7.2970691306684E-01 -9.8491723218255E-01
95  9.4000000000000E-01  6.9539695126950E-01 -9.8978289369791E-01
96  9.5000000000000E-01  6.6149288862906E-01 -9.9262644034031E-01
97  9.6000000000000E-01  6.2804311766205E-01 -9.9311406565348E-01
98  9.7000000000000E-01  5.9508887858937E-01 -9.9088410106868E-01
99  9.8000000000000E-01  5.6266466683119E-01 -9.8555439025383E-01
100  9.9000000000000E-01  5.3079873825199E-01 -9.7673043530239E-01
101  1.0000000000000E+00  4.9951370008413E-01 -9.6401416991454E-01
102  1.0100000000000E+00  4.6882717395786E-01 -9.4701320016147E-01
103  1.0200000000000E+00  4.3875251622071E-01 -9.2535034168492E-01
104  1.0300000000000E+00  4.0929957976279E-01 -8.9867327351493E-01
105  1.0400000000000E+00  3.8047550089670E-01 -8.6666412328465E-01
106  1.0500000000000E+00  3.5228549448306E-01 -8.2904879659904E-01
107  1.0600000000000E+00  3.2473364045419E-01 -7.8560586476073E-01
108  1.0700000000000E+00  2.9782364516805E-01 -7.3617482994736E-01
109  1.0800000000000E+00  2.7155956162056E-01 -6.8066359523817E-01
110  1.0900000000000E+00  2.4594645344238E-01 -6.1905497845058E-01
111  1.1000000000000E+00  2.2099098879154E-01 -5.5141212338049E-01
112  1.1100000000000E+00  1.9670195170574E-01 -4.7788267954522E-01
113  1.1200000000000E+00  1.7309066016176E-01 -3.9870164148036E-01
114  1.1300000000000E+00  1.5017128198897E-01 -3.1419276089963E-01
115  1.1400000000000E+00  1.2796104183845E-01 -2.2476846889666E-01
116  1.1500000000000E+00  1.0648031461190E-01 -1.3092827080591E-01
117  1.1600000000000E+00  8.5752603025513E-02 -3.3255602441445E-02
118  1.1700000000000E+00  6.5804399321154E-02  6.7586836784024E-02
119  1.1800000000000E+00  4.6664933454105E-02  1.7086323186913E-01
120  1.1900000000000E+00  2.8365812377536E-02  2.7577221320303E-01
121  1.2000000000000E+00  1.0940557233923E-02  3.8145573734144E-01
122  1.2100000000000E+00 -5.5759526703987E-03  4.8700917078170E-01
123  1.2200000000000E+00 -2.1148118332079E-02  5.9149243816233E-01
124  1.2300000000000E+00 -3.5740329501360E-02  6.9394207693469E-01
125  1.2400000000000E+00 -4.9317729199156E-02  7.9338402361157E-01
126  1.2500000000000E+00 -6.1847019204825E-02  8.8884694283799E-01
127  1.2600000000000E+00 -7.3297290520708E-02  9.7937589972570E-01
128  1.2700000000000E+00 -8.3640862229974E-02  1.0640461684459E+00
129  1.2800000000000E+00 -9.2854111894192E-02  1.1419769661041E+00
130  1.2900000000000E+00 -1.0091828068679E-01  1.2123449004132E+00
131  1.3000000000000E+00 -1.0782023683350E-01  1.2743969226911E+00
132  1.3100000000000E+00 -1.1355318161746E-01  1.3274625840918E+00
133  1.3200000000000E+00 -1.1811728319298E-01  1.3709654025841E+00
134  1.3300000000000E+00 -1.2152022472455E-01  1.4044331608779E+00