Sm    ONCVPSP-4.0.1  r_core=   2.00717   1.60864   1.90196   1.60864
62.0000     16.0000      250626    zatom,zion,pspd
8      11   3     4   600     0    pspcod,pspxc,lmax,lloc,mmax,r2well
5.99000000 19.20000000  0.00000000    rchrg fchrg qchrg
2     2     2     2     0    nproj
1     1           extension_switch
0                         6.9408228287643E+00  4.7740550255465E-01
1  0.0000000000000E+00  7.6886552680122E-11 -3.4313920455054E-10
2  1.0000000000000E-02  3.9531695941945E-02 -4.2122050451150E-03
3  2.0000000000000E-02  7.9045779700864E-02 -8.4679907109323E-03
4  3.0000000000000E-02  1.1852446254421E-01 -1.2810193956112E-02
5  4.0000000000000E-02  1.5794960468259E-01 -1.7280172817755E-02
6  5.0000000000000E-02  1.9730254482706E-01 -2.1917087868952E-02
7  6.0000000000000E-02  2.3656393579452E-01 -2.6757208532921E-02
8  7.0000000000000E-02  2.7571358808598E-01 -3.1833252132796E-02
9  8.0000000000000E-02  3.1473032328612E-01 -3.7173763213061E-02
10  9.0000000000000E-02  3.5359183903718E-01 -4.2802540246111E-02
11  1.0000000000000E-01  3.9227458722920E-01 -4.8738116339948E-02
12  1.1000000000000E-01  4.3075366692046E-01 -5.4993299995356E-02
13  1.2000000000000E-01  4.6900273335992E-01 -6.1574781328842E-02
14  1.3000000000000E-01  5.0699392432777E-01 -6.8482808487586E-02
15  1.4000000000000E-01  5.4469780484267E-01 -7.5710938241427E-02
16  1.5000000000000E-01  5.8208333110611E-01 -8.3245863951997E-02
17  1.6000000000000E-01  6.1911783436831E-01 -9.1067323298520E-02
18  1.7000000000000E-01  6.5576702520628E-01 -9.9148087291959E-02
19  1.8000000000000E-01  6.9199501850655E-01 -1.0745403124214E-01
20  1.9000000000000E-01  7.2776437924359E-01 -1.1594428746599E-01
21  2.0000000000000E-01  7.6303618894201E-01 -1.2457147864687E-01
22  2.1000000000000E-01  7.9777013250887E-01 -1.3328202988575E-01
23  2.2000000000000E-01  8.3192460492300E-01 -1.4201655663127E-01
24  2.3000000000000E-01  8.6545683707325E-01 -1.5071032484951E-01
25  2.4000000000000E-01  8.9832303984947E-01 -1.5929377900094E-01
26  2.5000000000000E-01  9.3047856540946E-01 -1.6769313264226E-01
27  2.6000000000000E-01  9.6187808437539E-01 -1.7583101577124E-01
28  2.7000000000000E-01  9.9247577755400E-01 -1.8362717239137E-01
29  2.8000000000000E-01  1.0222255406297E+00 -1.9099920119648E-01
30  2.9000000000000E-01  1.0510812001486E+00 -1.9786333177037E-01
31  3.0000000000000E-01  1.0789967389966E+00 -2.0413522826754E-01
32  3.1000000000000E-01  1.1059265294752E+00 -2.0973081219495E-01
33  3.2000000000000E-01  1.1318255720009E+00 -2.1456709565261E-01
34  3.3000000000000E-01  1.1566497373885E+00 -2.1856301621948E-01
35  3.4000000000000E-01  1.1803560106407E+00 -2.2164026458910E-01
36  3.5000000000000E-01  1.2029027341399E+00 -2.2372409607172E-01
37  3.6000000000000E-01  1.2242498481371E+00 -2.2474411718366E-01
38  3.7000000000000E-01  1.2443591264507E+00 -2.2463503874213E-01
39  3.8000000000000E-01  1.2631944053236E+00 -2.2333738717234E-01
40  3.9000000000000E-01  1.2807218034443E+00 -2.2079816611050E-01
41  4.0000000000000E-01  1.2969099312143E+00 -2.1697146084966E-01
42  4.1000000000000E-01  1.3117300874351E+00 -2.1181897871881E-01
43  4.2000000000000E-01  1.3251564417037E+00 -2.0531051910700E-01
44  4.3000000000000E-01  1.3371662009279E+00 -1.9742436753418E-01
45  4.4000000000000E-01  1.3477397585186E+00 -1.8814760892555E-01
46  4.5000000000000E-01  1.3568608249721E+00 -1.7747635605746E-01
47  4.6000000000000E-01  1.3645165387207E+00 -1.6541589000147E-01
48  4.7000000000000E-01  1.3706975563128E+00 -1.5198071029357E-01
49  4.8000000000000E-01  1.3753981211662E+00 -1.3719449348460E-01
50  4.9000000000000E-01  1.3786161103373E+00 -1.2108995967994E-01
51  5.0000000000000E-01  1.3803530589427E+00 -1.0370864763941E-01
52  5.1000000000000E-01  1.3806141620767E+00 -8.5100599972937E-02
53  5.2000000000000E-01  1.3794082542662E+00 -6.5323960924045E-02
54  5.3000000000000E-01  1.3767477667112E+00 -4.4444490171303E-02
55  5.4000000000000E-01  1.3726486627518E+00 -2.2534996987277E-02
56  5.5000000000000E-01  1.3671303522034E+00  3.2530003331625E-04
57  5.6000000000000E-01  1.3602155853812E+00  2.4051481640441E-02
58  5.7000000000000E-01  1.3519303278186E+00  4.8553698186781E-02
59  5.8000000000000E-01  1.3423036168472E+00  7.3737993969772E-02
60  5.9000000000000E-01  1.3313674013643E+00  9.9507177519746E-02
61  6.0000000000000E-01  1.3191563662525E+00  1.2576172914542E-01
62  6.1000000000000E-01  1.3057077430437E+00  1.5240073658310E-01
63  6.2000000000000E-01  1.2910611085285E+00  1.7932284922229E-01
64  6.3000000000000E-01  1.2752581731051E+00  2.0642724110319E-01
65  6.4000000000000E-01  1.2583425607354E+00  2.3361457270374E-01
66  6.5000000000000E-01  1.2403595824321E+00  2.6078794145805E-01
67  6.6000000000000E-01  1.2213560052347E+00  2.8785381097589E-01
68  6.7000000000000E-01  1.2013798186513E+00  3.1472290906490E-01
69  6.8000000000000E-01  1.1804800005373E+00  3.4131108489157E-01
70  6.9000000000000E-01  1.1587062843607E+00  3.6754011595333E-01
71  7.0000000000000E-01  1.1361089297622E+00  3.9333845596885E-01
72  7.1000000000000E-01  1.1127384982566E+00  4.1864191532168E-01
73  7.2000000000000E-01  1.0886456358469E+00  4.4339426631044E-01
74  7.3000000000000E-01  1.0638808642243E+00  4.6754776616032E-01
75  7.4000000000000E-01  1.0384943821212E+00  4.9106359152649E-01
76  7.5000000000000E-01  1.0125358782574E+00  5.1391217906705E-01
77  7.6000000000000E-01  9.8605435718509E-01  5.3607346756706E-01
78  7.7000000000000E-01  9.5909797918758E-01  5.5753703805182E-01
79  7.8000000000000E-01  9.3171391523370E-01  5.7830214932340E-01
80  7.9000000000000E-01  9.0394821782118E-01  5.9837766738186E-01
81  8.0000000000000E-01  8.7584570837467E-01  6.1778188823867E-01
82  8.1000000000000E-01  8.4744988168905E-01  6.3654225468612E-01
83  8.2000000000000E-01  8.1880282773328E-01  6.5469496864008E-01
84  8.3000000000000E-01  7.8994517095460E-01  6.7228450171474E-01
85  8.4000000000000E-01  7.6091602704906E-01  6.8936300770594E-01
86  8.5000000000000E-01  7.3175297699556E-01  7.0598964164362E-01
87  8.6000000000000E-01  7.0249205798590E-01  7.2222979101504E-01
88  8.7000000000000E-01  6.7316777072769E-01  7.3815422564762E-01
89  8.8000000000000E-01  6.4381310244879E-01  7.5383817356699E-01
90  8.9000000000000E-01  6.1445956479508E-01  7.6936033090187E-01
91  9.0000000000000E-01  5.8513724568711E-01  7.8480181458901E-01
92  9.1000000000000E-01  5.5587487408841E-01  8.0024506722776E-01
93  9.2000000000000E-01  5.2669989653783E-01  8.1577272394589E-01
94  9.3000000000000E-01  4.9763856421279E-01  8.3146645155666E-01
95  9.4000000000000E-01  4.6871602921842E-01  8.4740577061300E-01
96  9.5000000000000E-01  4.3995644874116E-01  8.6366687119431E-01
97  9.6000000000000E-01  4.1138309566269E-01  8.8032143339551E-01
98  9.7000000000000E-01  3.8301847420243E-01  8.9743546352735E-01
99  9.8000000000000E-01  3.5488443914265E-01  9.1506815698232E-01
100  9.9000000000000E-01  3.2700231718972E-01  9.3327079857756E-01
101  1.0000000000000E+00  2.9939302903618E-01  9.5208571095590E-01
102  1.0100000000000E+00  2.7207721071192E-01  9.7154526131606E-01
103  1.0200000000000E+00  2.4507533284535E-01  9.9167093635847E-01
104  1.0300000000000E+00  2.1840781649803E-01  1.0124724948795E+00
105  1.0400000000000E+00  1.9209514428547E-01  1.0339472069340E+00
106  1.0500000000000E+00  1.6615796555254E-01  1.0560791879196E+00
107  1.0600000000000E+00  1.4061719443211E-01  1.0788388353250E+00
108  1.0700000000000E+00  1.1549409967842E-01  1.1021823752366E+00
109  1.0800000000000E+00  9.0810385231204E-02  1.1260515250237E+00
110  1.0900000000000E+00  6.6588260531397E-02  1.1503732779249E+00
111  1.1000000000000E+00  4.2850499672028E-02  1.1750598145523E+00
112  1.1100000000000E+00  1.9620488528984E-02  1.2000085456141E+00
113  1.1200000000000E+00 -3.0777409267473E-03  1.2251022894455E+00
114  1.1300000000000E+00 -2.5219489880838E-02  1.2502095872321E+00
115  1.1400000000000E+00 -4.6779386189148E-02  1.2751851581102E+00
116  1.1500000000000E+00 -6.7731392808009E-02  1.2998704956516E+00
117  1.1600000000000E+00 -8.8048831759035E-02  1.3240946065684E+00
118  1.1700000000000E+00 -1.0770442421355E-01  1.3476748918225E+00
119  1.1800000000000E+00 -1.2667034725359E-01  1.3704181696850E+00
120  1.1900000000000E+00 -1.4491830784083E-01  1.3921218396600E+00
121  1.2000000000000E+00 -1.6241963450172E-01  1.4125751855598E+00
122  1.2100000000000E+00 -1.7914538721239E-01  1.4315608153905E+00
123  1.2200000000000E+00 -1.9506648594117E-01  1.4488562350602E+00
124  1.2300000000000E+00 -2.1015385827412E-01  1.4642355522566E+00
125  1.2400000000000E+00 -2.2437860650881E-01  1.4774713061303E+00
126  1.2500000000000E+00 -2.3771219454935E-01  1.4883364176599E+00
127  1.2600000000000E+00 -2.5012665486697E-01  1.4966062547404E+00
128  1.2700000000000E+00 -2.6159481570165E-01  1.5020608051074E+00
129  1.2800000000000E+00 -2.7209054856630E-01  1.5044869491712E+00
130  1.2900000000000E+00 -2.8158903597051E-01  1.5036808236542E+00
131  1.3000000000000E+00 -2.9006705910042E-01  1.4994502655816E+00
132  1.3100000000000E+00 -2.9750330496946E-01  1.4916173246428E+00
133  1.3200000000000E+00 -3.0387869228538E-01  1.4800208301923E+00
134  1.3300000000000E+00 -3.0917671495420E-01  1.4645189971483E+00
135  1.3400000000000E+00 -3.1338380175716E-01  1.4449920527679E+00
136  1.3500000000000E+00 -3.1648969028532E-01  1.4213448636842E+00
137  1.3600000000000E+00 -3.1848781268740E-01  1.3935095396345E+00
138  1.3700000000000E+00 -3.1937569017778E-01  1.3614479869838E+00
139  1.3800000000000E+00 -3.1915533255091E-01  1.3251543813887E+00
140  1.3900000000000E+00 -3.1783363815412E-01  1.2846575247497E+00
141  1.4000000000000E+00 -3.1542278886606E-01  1.2400230468792E+00
142  1.4100000000000E+00 -3.1194063361329E-01  1.1913554070708E+00
143  1.4200000000000E+00 -3.0741105282143E-01  1.1387996449411E+00
144  1.4300000000000E+00 -3.0186429492734E-01  1.0825428234521E+00
145  1.4400000000000E+00 -2.9533727467914E-01  1.0228150999533E+00
146  1.4500000000000E+00 -2.8787382139139E-01  9.5989035322933E-01
147  1.4600000000000E+00 -2.7952486361679E-01  8.9408628599279E-01
148  1.4700000000000E+00 -2.7034853482068E-01  8.2576391288627E-01
149  1.4800000000000E+00 -2.6041018259372E-01  7.5532633383833E-01
150  1.4900000000000E+00 -2.4978226170035E-01  6.8321668147789E-01
151  1.5000000000000E+00 -2.3854408883321E-01  6.0991511924918E-01
152  1.5100000000000E+00 -2.2678143430357E-01  5.3593475376124E-01
153  1.5200000000000E+00 -2.1458592303909E-01  4.6181631071790E-01
154  1.5300000000000E+00 -2.0205421417915E-01  3.8812140848974E-01
155  1.5400000000000E+00 -1.8928692522879E-01  3.1542424686982E-01
156  1.5500000000000E+00 -1.7638726315039E-01  2.4430151078059E-01
157  1.5600000000000E+00 -1.6345932092226E-01  1.7532026958335E-01
158  1.5700000000000E+00 -1.5060599396089E-01  1.0902363211122E-01
159  1.5800000000000E+00 -1.3792646637366E-01  4.5913895523265E-02
160  1.5900000000000E+00 -1.2551321038889E-01 -1.3567111323318E-02
161  1.6000000000000E+00 -1.1344846504444E-01 -6.9060607257959E-02
162  1.6100000000000E+00 -1.0179998032143E-01 -1.2031781820770E-01
163  1.6200000000000E+00 -9.0617855525916E-02 -1.6721737303483E-01
164  1.6300000000000E+00 -7.9940337778379E-02 -2.0971550026147E-01
165  1.6400000000000E+00 -6.9800493188472E-02 -2.4779338556002E-01
166  1.6500000000000E+00 -6.0226364034056E-02 -2.8145551581176E-01
167  1.6600000000000E+00 -5.1240923178195E-02 -3.1072966387074E-01
168  1.6700000000000E+00 -4.2862034184302E-02 -3.3566694573396E-01
169  1.6800000000000E+00 -3.5102448380375E-02 -3.5634170175402E-01
170  1.6900000000000E+00 -2.7969842137420E-02 -3.7285117887571E-01
171  1.7000000000000E+00 -2.1466893188867E-02 -3.8531502276991E-01
172  1.7100000000000E+00 -1.5591395622756E-02 -3.9387458162446E-01
173  1.7200000000000E+00 -1.0336412786937E-02 -3.9869202539726E-01
174  1.7300000000000E+00 -5.6904670769769E-03 -3.9994928555559E-01
175  1.7400000000000E+00 -1.6377649960788E-03 -3.9784682364017E-01
176  1.7500000000000E+00  1.8415439426914E-03 -3.9260223523781E-01
177  1.7600000000000E+00  4.7710758445401E-03 -3.8444869502224E-01
178  1.7700000000000E+00  7.1778948471797E-03 -3.7363328072260E-01
179  1.7800000000000E+00  9.0921642584671E-03 -3.6041513765931E-01
180  1.7900000000000E+00  1.0546777620004E-02 -3.4506355389309E-01
181  1.8000000000000E+00  1.1576967561221E-02 -3.2785592641817E-01
182  1.8100000000000E+00  1.2219897518051E-02 -3.0907564672194E-01
183  1.8200000000000E+00  1.2514239618500E-02 -2.8900992188657E-01
184  1.8300000000000E+00  1.2499742306926E-02 -2.6794754897605E-01
185  1.8400000000000E+00  1.2216791440414E-02 -2.4617666135819E-01
186  1.8500000000000E+00  1.1705968676855E-02 -2.2398246605335E-01
187  1.8600000000000E+00  1.1007611000421E-02 -2.0164499131446E-01
188  1.8700000000000E+00  1.0161376294341E-02 -1.7943686777319E-01
189  1.8800000000000E+00  9.2058102699349E-03 -1.5762112939796E-01
190  1.8900000000000E+00  8.1779466683135E-03 -1.3644916149845E-01
191  1.9000000000000E+00  7.1129043940149E-03 -1.1615865843855E-01
192  1.9100000000000E+00  6.0431188503856E-03 -9.6970212598727E-02
193  1.9200000000000E+00  4.9961321535230E-03 -7.9078182101928E-02
194  1.9300000000000E+00  3.9988356212492E-03 -6.2666715106179E-02
195  1.9400000000000E+00  3.0766652861709E-03 -4.7906499652370E-02
196  1.9500000000000E+00  2.2510022455186E-03 -3.4944492486909E-02
197  1.9600000000000E+00  1.5393354651102E-03 -2.3904210620728E-02
198  1.9700000000000E+00  9.5500768337854E-04 -1.4884501535118E-02
199  1.9800000000000E+00  5.0723153695673E-04 -7.9616323609005E-03
200  1.9900000000000E+00  1.9880771464635E-04 -3.1528755041749E-03
201  2.0000000000000E+00  3.8051302196549E-05 -6.1245815416988E-04
202  2.0100000000000E+00 -4.0594548477850E-06  6.6003333555403E-05
203  2.0200000000000E+00  3.7389771597380E-07 -6.0321192547340E-06
204  2.03  0. -0.
205  2.04 -0.  0.
206  2.05 -0.  0.
207  2.06  0.  0.
208  2.07  0.  0.
209  2.08  0.  0.
210  2.09  0.  0.
211  2.10  0.  0.
212  2.11  0.  0.
213  2.12  0.  0.
214  2.13  0.  0.
215  2.14  0.  0.
216  2.15  0.  0.
217  2.16  0.  0.
218  2.17  0.  0.
219  2.18  0.  0.
220  2.19  0.  0.
221  2.20  0.  0.
222  2.21  0.  0.
223  2.22  0.  0.
224  2.23  0.  0.
225  2.24  0.  0.
226  2.25  0.  0.
227  2.26  0.  0.
228  2.27  0.  0.
229  2.28  0.  0.
230  2.29  0.  0.
231  2.30  0.  0.
232  2.31  0.  0.
233  2.32  0.  0.
234  2.33  0.  0.
235  2.34  0.  0.
236  2.35  0.  0.
237  2.36  0.  0.
238  2.37  0.  0.
239  2.38  0.  0.
240  2.39  0.  0.
241  2.40  0.  0.
242  2.41  0.  0.
243  2.42  0.  0.
244  2.43  0.  0.
245  2.44  0.  0.
246  2.45  0.  0.
247  2.46  0.  0.
248  2.47  0.  0.
249  2.48  0.  0.
250  2.49  0.  0.
251  2.50  0.  0.
252  2.51  0.  0.
253  2.52  0.  0.
254  2.53  0.  0.
255  2.54  0.  0.
256  2.55  0.  0.
257  2.56  0.  0.
258  2.57  0.  0.
259  2.58  0.  0.
260  2.59  0.  0.
261  2.60  0.  0.
262  2.61  0.  0.
263  2.62  0.  0.
264  2.63  0.  0.
265  2.64  0.  0.
266  2.65  0.  0.
267  2.66  0.  0.
268  2.67  0.  0.
269  2.68  0.  0.
270  2.69  0.  0.
271  2.70  0.  0.
272  2.71  0.  0.
273  2.72  0.  0.
274  2.73  0.  0.
275  2.74  0.  0.
276  2.75  0.  0.
277  2.76  0.  0.
278  2.77  0.  0.
279  2.78  0.  0.
280  2.79  0.  0.
281  2.80  0.  0.
282  2.81  0.  0.
283  2.82  0.  0.
284  2.83  0.  0.
285  2.84  0.  0.
286  2.85  0.  0.
287  2.86  0.  0.
288  2.87  0.  0.
289  2.88  0.  0.
290  2.89  0.  0.
291  2.90  0.  0.
292  2.91  0.  0.
293  2.92  0.  0.
294  2.93  0.  0.
295  2.94  0.  0.
296  2.95  0.  0.
297  2.96  0.  0.
298  2.97  0.  0.
299  2.98  0.  0.
300  2.99  0.  0.
301  3.00  0.  0.
302  3.01  0.  0.
303  3.02  0.  0.
304  3.03  0.  0.
305  3.04  0.  0.
306  3.05  0.  0.
307  3.06  0.  0.
308  3.07  0.  0.
309  3.08  0.  0.
310  3.09  0.  0.
311  3.10  0.  0.
312  3.11  0.  0.
313  3.12  0.  0.
314  3.13  0.  0.
315  3.14  0.  0.
316  3.15  0.  0.
317  3.16  0.  0.
318  3.17  0.  0.
319  3.18  0.  0.
320  3.19  0.  0.
321  3.20  0.  0.
322  3.21  0.  0.
323  3.22  0.  0.
324  3.23  0.  0.
325  3.24  0.  0.
326  3.25  0.  0.
327  3.26  0.  0.
328  3.27  0.  0.
329  3.28  0.  0.
330  3.29  0.  0.
331  3.30  0.  0.
332  3.31  0.  0.
333  3.32  0.  0.
334  3.33  0.  0.
335  3.34  0.  0.
336  3.35  0.  0.
337  3.36  0.  0.
338  3.37  0.  0.
339  3.38  0.  0.
340  3.39  0.  0.
341  3.40  0.  0.
342  3.41  0.  0.
343  3.42  0.  0.
344  3.43  0.  0.
345  3.44  0.  0.
346  3.45  0.  0.
347  3.46  0.  0.
348  3.47  0.  0.
349  3.48  0.  0.
350  3.49  0.  0.
351  3.50  0.  0.
352  3.51  0.  0.
353  3.52  0.  0.
354  3.53  0.  0.
355  3.54  0.  0.
356  3.55  0.  0.
357  3.56  0.  0.
358  3.57  0.  0.
359  3.58  0.  0.
360  3.59  0.  0.
361  3.60  0.  0.
362  3.61  0.  0.
363  3.62  0.  0.
364  3.63  0.  0.
365  3.64  0.  0.
366  3.65  0.  0.
367  3.66  0.  0.
368  3.67  0.  0.
369  3.68  0.  0.
370  3.69  0.  0.
371  3.70  0.  0.
372  3.71  0.  0.
373  3.72  0.  0.
374  3.73  0.  0.
375  3.74  0.  0.
376  3.75  0.  0.
377  3.76  0.  0.
378  3.77  0.  0.
379  3.78  0.  0.
380  3.79  0.  0.
381  3.80  0.  0.
382  3.81  0.  0.
383  3.82  0.  0.
384  3.83  0.  0.
385  3.84  0.  0.
386  3.85  0.  0.
387  3.86  0.  0.
388  3.87  0.  0.
389  3.88  0.  0.
390  3.89  0.  0.
391  3.90  0.  0.
392  3.91  0.  0.
393  3.92  0.  0.
394  3.93  0.  0.
395  3.94  0.  0.
396  3.95  0.  0.
397  3.96  0.  0.
398  3.97  0.  0.
399  3.98  0.  0.
400  3.99  0.  0.
401  4.00  0.  0.
402  4.01  0.  0.
403  4.02  0.  0.
404  4.03  0.  0.
405  4.04  0.  0.
406  4.05  0.  0.
407  4.06  0.  0.
408  4.07  0.  0.
409  4.08  0.  0.
410  4.09  0.  0.
411  4.10  0.  0.
412  4.11  0.  0.
413  4.12  0.  0.
414  4.13  0.  0.
415  4.14  0.  0.
416  4.15  0.  0.
417  4.16  0.  0.
418  4.17  0.  0.
419  4.18  0.  0.
420  4.19  0.  0.
421  4.20  0.  0.
422  4.21  0.  0.
423  4.22  0.  0.
424  4.23  0.  0.
425  4.24  0.  0.
426  4.25  0.  0.
427  4.26  0.  0.
428  4.27  0.  0.
429  4.28  0.  0.
430  4.29  0.  0.
431  4.30  0.  0.
432  4.31  0.  0.
433  4.32  0.  0.
434  4.33  0.  0.
435  4.34  0.  0.
436  4.35  0.  0.
437  4.36  0.  0.
438  4.37  0.  0.
439  4.38  0.  0.
440  4.39  0.  0.
441  4.40  0.  0.
442  4.41  0.  0.
443  4.42  0.  0.
444  4.43  0.  0.
445  4.44  0.  0.
446  4.45  0.  0.
447  4.46  0.  0.
448  4.47  0.  0.
449  4.48  0.  0.
450  4.49  0.  0.
451  4.50  0.  0.
452  4.51  0.  0.
453  4.52  0.  0.
454  4.53  0.  0.
455  4.54  0.  0.
456  4.55  0.  0.
457  4.56  0.  0.
458  4.57  0.  0.
459  4.58  0.  0.
460  4.59  0.  0.
461  4.60  0.  0.
462  4.61  0.  0.
463  4.62  0.  0.
464  4.63  0.  0.
465  4.64  0.  0.
466  4.65  0.  0.
467  4.66  0.  0.
468  4.67  0.  0.
469  4.68  0.  0.
470  4.69  0.  0.
471  4.70  0.  0.
472  4.71  0.  0.
473  4.72  0.  0.
474  4.73  0.  0.
475  4.74  0.  0.
476  4.75  0.  0.
477  4.76  0.  0.
478  4.77  0.  0.
479  4.78  0.  0.
480  4.79  0.  0.
481  4.80  0.  0.
482  4.81  0.  0.
483  4.82  0.  0.
484  4.83  0.  0.
485  4.84  0.  0.
486  4.85  0.  0.
487  4.86  0.  0.
488  4.87  0.  0.
489  4.88  0.  0.
490  4.89  0.  0.
491  4.90  0.  0.
492  4.91  0.  0.
493  4.92  0.  0.
494  4.93  0.  0.
495  4.94  0.  0.
496  4.95  0.  0.
497  4.96  0.  0.
498  4.97  0.  0.
499  4.98  0.  0.
500  4.99  0.  0.
501  5.00  0.  0.
502  5.01  0.  0.
503  5.02  0.  0.
504  5.03  0.  0.
505  5.04  0.  0.
506  5.05  0.  0.
507  5.06  0.  0.
508  5.07  0.  0.
509  5.08  0.  0.
510  5.09  0.  0.
511  5.10  0.  0.
512  5.11  0.  0.
513  5.12  0.  0.
514  5.13  0.  0.
515  5.14  0.  0.
516  5.15  0.  0.
517  5.16  0.  0.
518  5.17  0.  0.
519  5.18  0.  0.
520  5.19  0.  0.
521  5.20  0.  0.
522  5.21  0.  0.
523  5.22  0.  0.
524  5.23  0.  0.
525  5.24  0.  0.
526  5.25  0.  0.
527  5.26  0.  0.
528  5.27  0.  0.
529  5.28  0.  0.
530  5.29  0.  0.
531  5.30  0.  0.
532  5.31  0.  0.
533  5.32  0.  0.
534  5.33  0.  0.
535  5.34  0.  0.
536  5.35  0.  0.
537  5.36  0.  0.
538  5.37  0.  0.
539  5.38  0.  0.
540  5.39  0.  0.
541  5.40  0.  0.
542  5.41  0.  0.
543  5.42  0.  0.
544  5.43  0.  0.
545  5.44  0.  0.
546  5.45  0.  0.
547  5.46  0.  0.
548  5.47  0.  0.
549  5.48  0.  0.
550  5.49  0.  0.
551  5.50  0.  0.
552  5.51  0.  0.
553  5.52  0.  0.
554  5.53  0.  0.
555  5.54  0.  0.
556  5.55  0.  0.
557  5.56  0.  0.
558  5.57  0.  0.
559  5.58  0.  0.
560  5.59  0.  0.
561  5.60  0.  0.
562  5.61  0.  0.
563  5.62  0.  0.
564  5.63  0.  0.
565  5.64  0.  0.
566  5.65  0.  0.
567  5.66  0.  0.
568  5.67  0.  0.
569  5.68  0.  0.
570  5.69  0.  0.
571  5.70  0.  0.
572  5.71  0.  0.
573  5.72  0.  0.
574  5.73  0.  0.
575  5.74  0.  0.
576  5.75  0.  0.
577  5.76  0.  0.
578  5.77  0.  0.
579  5.78  0.  0.
580  5.79  0.  0.
581  5.80  0.  0.
582  5.81  0.  0.
583  5.82  0.  0.
584  5.83  0.  0.
585  5.84  0.  0.
586  5.85  0.  0.
587  5.86  0.  0.
588  5.87  0.  0.
589  5.88  0.  0.
590  5.89  0.  0.
591  5.90  0.  0.
592  5.91  0.  0.
593  5.92  0.  0.
594  5.93  0.  0.
595  5.94  0.  0.
596  5.95  0.  0.
597  5.96  0.  0.
598  5.97  0.  0.
599  5.98  0.  0.
600  5.99  0.  0.
1                         4.8650127612466E+00  3.6645232296382E-01
1  0.0000000000000E+00  8.3215433849260E-09 -6.4643975422607E-08
2  1.0000000000000E-02  1.3632080159611E-03 -4.0914004790183E-03
3  2.0000000000000E-02  5.4388058821964E-03 -1.6268735688299E-02
4  3.0000000000000E-02  1.2184967475308E-02 -3.6243366613914E-02
5  4.0000000000000E-02  2.1532819101412E-02 -6.3540722527765E-02
6  5.0000000000000E-02  3.3387677230754E-02 -9.7509910371568E-02
7  6.0000000000000E-02  4.7630747595835E-02 -1.3733690634976E-01
8  7.0000000000000E-02  6.4121252699797E-02 -1.8206107414143E-01
9  8.0000000000000E-02  8.2698946460262E-02 -2.3059468949747E-01
10  9.0000000000000E-02  1.0318696718411E-01 -2.8174509241581E-01
11  1.0000000000000E-01  1.2539497347579E-01 -3.3423903669993E-01
12  1.1000000000000E-01  1.4912250215325E-01 -3.8674876348273E-01
13  1.2000000000000E-01  1.7416248288824E-01 -4.3791929106810E-01
14  1.3000000000000E-01  2.0030484118760E-01 -4.8639638886547E-01
15  1.4000000000000E-01  2.2734011954976E-01 -5.3085468874791E-01
16  1.5000000000000E-01  2.5506304620297E-01 -5.7002538314056E-01
17  1.6000000000000E-01  2.8327598176973E-01 -6.0272296563833E-01
18  1.7000000000000E-01  3.1179217648983E-01 -6.2787048685698E-01
19  1.8000000000000E-01  3.4043877423217E-01 -6.4452282523905E-01
20  1.9000000000000E-01  3.6905950436670E-01 -6.5188750917868E-01
21  2.0000000000000E-01  3.9751700856377E-01 -6.4934267242294E-01
22  2.1000000000000E-01  4.2569475662561E-01 -6.3645177841313E-01
23  2.2000000000000E-01  4.5349851340392E-01 -6.1297481004990E-01
24  2.3000000000000E-01  4.8085732756659E-01 -5.7887568817153E-01
25  2.4000000000000E-01  5.0772402228337E-01 -5.3432575357617E-01
26  2.5000000000000E-01  5.3407517762639E-01 -4.7970322235814E-01
27  2.6000000000000E-01  5.5991060444353E-01 -4.1558860125841E-01
28  2.7000000000000E-01  5.8525231946954E-01 -3.4275612719987E-01
29  2.8000000000000E-01  6.1014304130063E-01 -2.6216137172845E-01
30  2.9000000000000E-01  6.3464423638279E-01 -1.7492522525696E-01
31  3.0000000000000E-01  6.5883375316882E-01 -8.2314546402252E-02
32  3.1000000000000E-01  6.8280309090905E-01  1.4280173029346E-02
33  3.2000000000000E-01  7.0665435699279E-01  1.1336971797109E-01
34  3.3000000000000E-01  7.3049697320610E-01  2.1339317413994E-01
35  3.4000000000000E-01  7.5444419658676E-01  3.1274656255490E-01
36  3.5000000000000E-01  7.7860952463212E-01  4.0981254741505E-01
37  3.6000000000000E-01  8.0310305736579E-01  5.0299065678583E-01
38  3.7000000000000E-01  8.2802789013380E-01  5.9072744263283E-01
39  3.8000000000000E-01  8.5347661094714E-01  6.7154600464745E-01
40  3.9000000000000E-01  8.7952797470778E-01  7.4407431112074E-01
41  4.0000000000000E-01  9.0624382376872E-01  8.0707176972193E-01
42  4.1000000000000E-01  9.3366632003339E-01  8.5945353111148E-01
43  4.2000000000000E-01  9.6181554826653E-01  9.0031204834307E-01
44  4.3000000000000E-01  9.9068754356701E-01  9.2893546428408E-01
45  4.4000000000000E-01  1.0202527881617E+00  9.4482245692100E-01
46  4.5000000000000E-01  1.0504552139618E+00  9.4769323737327E-01
47  4.6000000000000E-01  1.0812117378371E+00  9.3749646652734E-01
48  4.7000000000000E-01  1.1124123464884E+00  9.1441193211247E-01
49  4.8000000000000E-01  1.1439207373152E+00  8.7884890736693E-01
50  4.9000000000000E-01  1.1755755109914E+00  8.3144019370757E-01
51  5.0000000000000E-01  1.2071919007682E+00  7.7303193149733E-01
52  5.1000000000000E-01  1.2385640130285E+00  7.0466934356524E-01
53  5.2000000000000E-01  1.2694675435249E+00  6.2757865404739E-01
54  5.3000000000000E-01  1.2996629242332E+00  5.4314549890141E-01
55  5.4000000000000E-01  1.3288988470288E+00  4.5289021268816E-01
56  5.5000000000000E-01  1.3569161026277E+00  3.5844043759343E-01
57  5.6000000000000E-01  1.3834516665641E+00  2.6150155398581E-01
58  5.7000000000000E-01  1.4082429585520E+00  1.6382547602195E-01
59  5.8000000000000E-01  1.4310321975037E+00  6.7178390031980E-02
60  5.9000000000000E-01  1.4515707718417E+00 -2.6691963055735E-02
61  6.0000000000000E-01  1.4696235436078E+00 -1.1608884766724E-01
62  6.1000000000000E-01  1.4849730052681E+00 -1.9939832150271E-01
63  6.2000000000000E-01  1.4974232100485E+00 -2.7511964776962E-01
64  6.3000000000000E-01  1.5068034000829E+00 -3.4189375027643E-01
65  6.4000000000000E-01  1.5129712615591E+00 -3.9852916323161E-01
66  6.5000000000000E-01  1.5158157423313E+00 -4.4402497142308E-01
67  6.6000000000000E-01  1.5152593750164E+00 -4.7759029005332E-01
68  6.7000000000000E-01  1.5112600572778E+00 -4.9865989592017E-01
69  6.8000000000000E-01  1.5038122506644E+00 -5.0690569174504E-01
70  6.9000000000000E-01  1.4929475698427E+00 -5.0224376197276E-01
71  7.0000000000000E-01  1.4787347451441E+00 -4.8483685990902E-01
72  7.1000000000000E-01  1.4612789528373E+00 -4.5509225110136E-01
73  7.2000000000000E-01  1.4407205192266E+00 -4.1365492484094E-01
74  7.3000000000000E-01  1.4172330163348E+00 -3.6139627292161E-01
75  7.4000000000000E-01  1.3910207783496E+00 -2.9939842071185E-01
76  7.5000000000000E-01  1.3623158789696E+00 -2.2893447853880E-01
77  7.6000000000000E-01  1.3313746200687E+00 -1.5144505977085E-01
78  7.7000000000000E-01  1.2984735915201E+00 -6.8511484322590E-02
79  7.8000000000000E-01  1.2639053703790E+00  1.8173848815701E-02
80  7.9000000000000E-01  1.2279739347748E+00  1.0683938025873E-01
81  8.0000000000000E-01  1.1909898736463E+00  1.9566801401357E-01
82  8.1000000000000E-01  1.1532654777647E+00  2.8283182468537E-01
83  8.2000000000000E-01  1.1151098002258E+00  3.6652720230596E-01
84  8.3000000000000E-01  1.0768237757038E+00  4.4500977688498E-01
85  8.4000000000000E-01  1.0386954872023E+00  5.1662846496303E-01
86  8.5000000000000E-01  1.0009956668272E+00  5.7985799298060E-01
87  8.6000000000000E-01  9.6397351325526E-01  6.3332927698804E-01
88  8.7000000000000E-01  9.2785290316319E-01  6.7585707471025E-01
89  8.8000000000000E-01  8.9282906698975E-01  7.0646437361670E-01
90  8.9000000000000E-01  8.5906579116203E-01  7.2440303659215E-01
91  9.0000000000000E-01  8.2669319946694E-01  7.2917029401339E-01
92  9.1000000000000E-01  7.9580615576356E-01  7.2052074629643E-01
93  9.2000000000000E-01  7.6646331890322E-01  6.9847362290179E-01
94  9.3000000000000E-01  7.3868686875978E-01  6.6331513086971E-01
95  9.4000000000000E-01  7.1246290989486E-01  6.1559581658593E-01
96  9.5000000000000E-01  6.8774254682290E-01  5.5612295695919E-01
97  9.6000000000000E-01  6.6444361233332E-01  4.8594808880355E-01
98  9.7000000000000E-01  6.4245301810757E-01  4.0634987621915E-01
99  9.8000000000000E-01  6.2162968517103E-01  3.1881260342260E-01
100  9.9000000000000E-01  6.0180800075837E-01  2.2500066319090E-01
101  1.0000000000000E+00  5.8280173816534E-01  1.2672948720869E-01
102  1.0100000000000E+00  5.6440836729541E-01  2.5933432745390E-02
103  1.0200000000000E+00  5.4641367605782E-01 -7.5368801066666E-02
104  1.0300000000000E+00  5.2859661668173E-01 -1.7511060566257E-01
105  1.0400000000000E+00  5.1073428650340E-01 -2.7121508546946E-01
106  1.0500000000000E+00  4.9260694993992E-01 -3.6163318663172E-01
107  1.0600000000000E+00  4.7400300725405E-01 -4.4438163597797E-01
108  1.0700000000000E+00  4.5472381635648E-01 -5.1757999462403E-01
109  1.0800000000000E+00  4.3458827628457E-01 -5.7948614392619E-01
110  1.0900000000000E+00  4.1343708509865E-01 -6.2852954745733E-01
111  1.1000000000000E+00  3.9113659066535E-01 -6.6334167074068E-01
112  1.1100000000000E+00  3.6758216008018E-01 -6.8278299015608E-01
113  1.1200000000000E+00  3.4270100212490E-01 -6.8596608240025E-01
114  1.1300000000000E+00  3.1645438709751E-01 -6.7227435571530E-01
115  1.1400000000000E+00  2.8883921927323E-01 -6.4137606152144E-01
116  1.1500000000000E+00  2.5988892912811E-01 -5.9323330994312E-01
117  1.1600000000000E+00  2.2967366485263E-01 -5.2810590190488E-01
118  1.1700000000000E+00  1.9829977560256E-01 -4.4654988402971E-01
119  1.1800000000000E+00  1.6590859190113E-01 -3.4941082703326E-01
120  1.1900000000000E+00  1.3267452160023E-01 -2.3781192354622E-01
121  1.2000000000000E+00  9.8802492408148E-02 -1.1313709423901E-01
122  1.2100000000000E+00  6.4524784073544E-02  2.2990619132897E-02
123  1.2200000000000E+00  3.0097304638677E-02  1.6873501036164E-01
124  1.2300000000000E+00 -4.2046245546594E-03  3.2207657406253E-01
125  1.2400000000000E+00 -3.8090901231096E-02  4.8084576823738E-01
126  1.2500000000000E+00 -7.1261610285509E-02  6.4275910243708E-01
127  1.2600000000000E+00 -1.0341223966754E-01  8.0545742950335E-01
128  1.2700000000000E+00 -1.3423905137415E-01  9.6654577983008E-01
129  1.2800000000000E+00 -1.6344451186583E-01  1.1236340501286E+00
130  1.2900000000000E+00 -1.9074268492439E-01  1.2743778438790E+00
131  1.3000000000000E+00 -2.1586449044811E-01  1.4165187585184E+00
132  1.3100000000000E+00 -2.3856273489334E-01  1.5479234247399E+00
133  1.3200000000000E+00 -2.5861682297344E-01  1.6666206257377E+00
134  1.3300000000000E+00 -2.7583706577341E-01  1.7708358585571E+00