Sm    ONCVPSP-4.0.1  r_core=   2.00717   1.60864   1.90196   1.60864
62.0000     16.0000      250626    zatom,zion,pspd
8      11   3     4   600     0    pspcod,pspxc,lmax,lloc,mmax,r2well
5.99000000 20.40000000  0.00000000    rchrg fchrg qchrg
2     2     2     2     0    nproj
1     1           extension_switch
0                         6.9532782348406E+00  4.9167182498577E-01
1  0.0000000000000E+00  7.9805495545315E-11 -3.5242464502261E-10
2  1.0000000000000E-02  3.9384613079930E-02 -3.6113248842942E-03
3  2.0000000000000E-02  7.8752521538431E-02 -7.2695366136429E-03
4  3.0000000000000E-02  1.1808683652025E-01 -1.1020752183900E-02
5  4.0000000000000E-02  1.5737030281933E-01 -1.4909557539414E-02
6  5.0000000000000E-02  1.9658512097513E-01 -1.8978263574121E-02
7  6.0000000000000E-02  2.3571277563791E-01 -2.3266187712776E-02
8  7.0000000000000E-02  2.7473387219835E-01 -2.7808969181503E-02
9  8.0000000000000E-02  3.1362798359676E-01 -3.2637925724404E-02
10  9.0000000000000E-02  3.5237350912910E-01 -3.7779459088978E-02
11  1.0000000000000E-01  3.9094754695083E-01 -4.3254516092002E-02
12  1.1000000000000E-01  4.2932578184733E-01 -4.9078111494376E-02
13  1.2000000000000E-01  4.6748238969192E-01 -5.5258918264128E-02
14  1.3000000000000E-01  5.0538995985068E-01 -6.1798930097721E-02
15  1.4000000000000E-01  5.4301943661977E-01 -6.8693200308376E-02
16  1.5000000000000E-01  5.8034008059603E-01 -7.5929660383481E-02
17  1.6000000000000E-01  6.1731945068823E-01 -8.3489020670255E-02
18  1.7000000000000E-01  6.5392340727582E-01 -9.1344754777124E-02
19  1.8000000000000E-01  6.9011613681585E-01 -9.9463168387765E-02
20  1.9000000000000E-01  7.2586019799026E-01 -1.0780355228343E-01
21  2.0000000000000E-01  7.6111658927480E-01 -1.1631841846717E-01
22  2.1000000000000E-01  7.9584483760184E-01 -1.2495381738922E-01
23  2.2000000000000E-01  8.3000310758211E-01 -1.3364973339631E-01
24  2.3000000000000E-01  8.6354833054889E-01 -1.4234055467691E-01
25  2.4000000000000E-01  8.9643635249234E-01 -1.5095561315976E-01
26  2.5000000000000E-01  9.2862209976526E-01 -1.5941978905100E-01
27  2.6000000000000E-01  9.6005976126501E-01 -1.6765417397649E-01
28  2.7000000000000E-01  9.9070298563200E-01 -1.7557678603502E-01
29  2.8000000000000E-01  1.0205050918546E+00 -1.8310332947584E-01
30  2.9000000000000E-01  1.0494192915347E+00 -1.9014799119267E-01
31  3.0000000000000E-01  1.0773989209492E+00 -1.9662426578582E-01
32  3.1000000000000E-01  1.1043976809405E+00 -2.0244580058578E-01
33  3.2000000000000E-01  1.1303698825883E+00 -2.0752725176287E-01
34  3.3000000000000E-01  1.1552706965489E+00 -2.1178514246836E-01
35  3.4000000000000E-01  1.1790564039058E+00 -2.1513871386884E-01
36  3.5000000000000E-01  1.2016846463557E+00 -2.1751075994573E-01
37  3.6000000000000E-01  1.2231146735448E+00 -2.1882843703807E-01
38  3.7000000000000E-01  1.2433075853983E+00 -2.1902403930883E-01
39  3.8000000000000E-01  1.2622265673167E+00 -2.1803573160942E-01
40  3.9000000000000E-01  1.2798371161784E+00 -2.1580823160444E-01
41  4.0000000000000E-01  1.2961072551643E+00 -2.1229343349259E-01
42  4.1000000000000E-01  1.3110077355196E+00 -2.0745096621881E-01
43  4.2000000000000E-01  1.3245122234840E+00 -2.0124867970810E-01
44  4.3000000000000E-01  1.3365974707550E+00 -1.9366305336230E-01
45  4.4000000000000E-01  1.3472434669978E+00 -1.8467952183451E-01
46  4.5000000000000E-01  1.3564335730777E+00 -1.7429271392938E-01
47  4.6000000000000E-01  1.3641546338674E+00 -1.6250660136041E-01
48  4.7000000000000E-01  1.3703970696677E+00 -1.4933455501846E-01
49  4.8000000000000E-01  1.3751549454735E+00 -1.3479930736167E-01
50  4.9000000000000E-01  1.3784260175229E+00 -1.1893282051466E-01
51  5.0000000000000E-01  1.3802117567707E+00 -1.0177606065410E-01
52  5.1000000000000E-01  1.3805173491411E+00 -8.3378680248911E-02
53  5.2000000000000E-01  1.3793516726222E+00 -6.3798610707121E-02
54  5.3000000000000E-01  1.3767272514795E+00 -4.3101568944115E-02
55  5.4000000000000E-01  1.3726601880663E+00 -2.1360482323026E-02
56  5.5000000000000E-01  1.3671700729155E+00  1.3451626867302E-03
57  5.6000000000000E-01  1.3602798739884E+00  2.4930041939644E-02
58  5.7000000000000E-01  1.3520158061399E+00  4.9303778150381E-02
59  5.8000000000000E-01  1.3424071820353E+00  7.4371780831302E-02
60  5.9000000000000E-01  1.3314862459126E+00  1.0003613327875E-01
61  6.0000000000000E-01  1.3192879917295E+00  1.2619651768956E-01
62  6.1000000000000E-01  1.3058499673669E+00  1.5275116901244E-01
63  6.2000000000000E-01  1.2912120666709E+00  1.7959784775635E-01
64  6.3000000000000E-01  1.2754163112106E+00  2.0663482169345E-01
65  6.4000000000000E-01  1.2585066237064E+00  2.3376184621393E-01
66  6.5000000000000E-01  1.2405285951348E+00  2.6088113301317E-01
67  6.6000000000000E-01  1.2215292475562E+00  2.8789829682302E-01
68  6.7000000000000E-01  1.2015567947224E+00  3.1472327003669E-01
69  6.8000000000000E-01  1.1806604025178E+00  3.4127117532092E-01
70  6.9000000000000E-01  1.1588899512588E+00  3.6746314665758E-01
71  7.0000000000000E-01  1.1362958018344E+00  3.9322708970717E-01
72  7.1000000000000E-01  1.1129285675995E+00  4.1849837293357E-01
73  7.2000000000000E-01  1.0888388938537E+00  4.4322044156865E-01
74  7.3000000000000E-01  1.0640772466335E+00  4.6734534722015E-01
75  7.4000000000000E-01  1.0386937124284E+00  4.9083418672989E-01
76  7.5000000000000E-01  1.0127378103016E+00  5.1365744476275E-01
77  7.6000000000000E-01  9.8625831774555E-01  5.3579523554274E-01
78  7.7000000000000E-01  9.5930311145043E-01  5.5723744013966E-01
79  7.8000000000000E-01  9.3191902399154E-01  5.7798373673883E-01
80  7.9000000000000E-01  9.0415171727130E-01  5.9804352238736E-01
81  8.0000000000000E-01  8.7604557336775E-01  6.1743572579051E-01
82  8.1000000000000E-01  8.4764360325864E-01  6.3618851182183E-01
83  8.2000000000000E-01  8.1898737370346E-01  6.5433887949774E-01
84  8.3000000000000E-01  7.9011695238048E-01  6.7193215624166E-01
85  8.4000000000000E-01  7.6107087119217E-01  6.8902139231131E-01
86  8.5000000000000E-01  7.3188610747332E-01  7.0566666027793E-01
87  8.6000000000000E-01  7.0259808266379E-01  7.2193426541310E-01
88  8.7000000000000E-01  6.7324067784230E-01  7.3789587375342E-01
89  8.8000000000000E-01  6.4384626536324E-01  7.5362756546037E-01
90  8.9000000000000E-01  6.1444575569361E-01  7.6920882186989E-01
91  9.0000000000000E-01  5.8506865841606E-01  7.8472145532186E-01
92  9.1000000000000E-01  5.5574315624557E-01  8.0024849146914E-01
93  9.2000000000000E-01  5.2649619080372E-01  8.1587301428489E-01
94  9.3000000000000E-01  4.9735355880574E-01  8.3167698440953E-01
95  9.4000000000000E-01  4.6834001724290E-01  8.4774004180276E-01
96  9.5000000000000E-01  4.3947939608533E-01  8.6413830389095E-01
97  9.6000000000000E-01  4.1079471698943E-01  8.8094317052361E-01
98  9.7000000000000E-01  3.8230831646810E-01  8.9822014707682E-01
99  9.8000000000000E-01  3.5404197197185E-01  9.1602769696775E-01
100  9.9000000000000E-01  3.2601702933270E-01  9.3441613467603E-01
101  1.0000000000000E+00  2.9825453004043E-01  9.5342657010906E-01
102  1.0100000000000E+00  2.7077533685111E-01  9.7308991480459E-01
103  1.0200000000000E+00  2.4360025626923E-01  9.9342596004131E-01
104  1.0300000000000E+00  2.1675015649650E-01  1.0144425364331E+00
105  1.0400000000000E+00  1.9024607949994E-01  1.0361347640248E+00
106  1.0500000000000E+00  1.6410934591956E-01  1.0584844012907E+00
107  1.0600000000000E+00  1.3836165160730E-01  1.0814593007766E+00
108  1.0700000000000E+00  1.1302515466555E-01  1.1050129784224E+00
109  1.0800000000000E+00  8.8122551930896E-02  1.1290843028736E+00
110  1.0900000000000E+00  6.3677143927760E-02  1.1535973103330E+00
111  1.1000000000000E+00  3.9712887393472E-02  1.1784611497436E+00
112  1.1100000000000E+00  1.6254434551916E-02  1.2035701623138E+00
113  1.1200000000000E+00 -6.6728416156902E-03  1.2288040986329E+00
114  1.1300000000000E+00 -2.9042836786904E-02  1.2540284758556E+00
115  1.1400000000000E+00 -5.0828720023214E-02  1.2790950766856E+00
116  1.1500000000000E+00 -7.2002954369479E-02  1.3038425911512E+00
117  1.1600000000000E+00 -9.2537333842450E-02  1.3280974014486E+00
118  1.1700000000000E+00 -1.1240303727745E-01  1.3516745094275E+00
119  1.1800000000000E+00 -1.3157069946207E-01  1.3743786056141E+00
120  1.1900000000000E+00 -1.5001049994902E-01  1.3960052779946E+00
121  1.2000000000000E+00 -1.6769226990661E-01  1.4163423581281E+00
122  1.2100000000000E+00 -1.8458561733191E-01  1.4351714014992E+00
123  1.2200000000000E+00 -2.0066007091741E-01  1.4522692983592E+00
124  1.2300000000000E+00 -2.1588524282349E-01  1.4674100106289E+00
125  1.2400000000000E+00 -2.3023101056344E-01  1.4803664297207E+00
126  1.2500000000000E+00 -2.4366771815168E-01  1.4909123493914E+00
127  1.2600000000000E+00 -2.5616639659587E-01  1.4988245469138E+00
128  1.2700000000000E+00 -2.6769900372374E-01  1.5038849649623E+00
129  1.2800000000000E+00 -2.7823868322384E-01  1.5058829856043E+00
130  1.2900000000000E+00 -2.8776004263826E-01  1.5046177866678E+00
131  1.3000000000000E+00 -2.9623944987067E-01  1.4999007694760E+00
132  1.3100000000000E+00 -3.0365534755909E-01  1.4915580454919E+00
133  1.3200000000000E+00 -3.0998858440385E-01  1.4794329677614E+00
134  1.3300000000000E+00 -3.1522276222887E-01  1.4633886911543E+00
135  1.3400000000000E+00 -3.1934459718542E-01  1.4433107432470E+00
136  1.3500000000000E+00 -3.2234429307348E-01  1.4191095852550E+00
137  1.3600000000000E+00 -3.2421592424836E-01  1.3907231396356E+00
138  1.3700000000000E+00 -3.2495782499491E-01  1.3581192578508E+00
139  1.3800000000000E+00 -3.2457298157856E-01  1.3212980982362E+00
140  1.3900000000000E+00 -3.2306942241877E-01  1.2802943799690E+00
141  1.4000000000000E+00 -3.2046060096008E-01  1.2351794746696E+00
142  1.4100000000000E+00 -3.1676576483996E-01  1.1860632922331E+00
143  1.4200000000000E+00 -3.1201030385916E-01  1.1330959119909E+00
144  1.4300000000000E+00 -3.0622606803752E-01  1.0764689042050E+00
145  1.4400000000000E+00 -2.9945164569142E-01  1.0164162802184E+00
146  1.4500000000000E+00 -2.9173258996655E-01  9.5321500216219E-01
147  1.4600000000000E+00 -2.8312158061775E-01  8.8718497504580E-01
148  1.4700000000000E+00 -2.7367850602183E-01  8.1868843519486E-01
149  1.4800000000000E+00 -2.6347044843477E-01  7.4812863933654E-01
150  1.4900000000000E+00 -2.5257155335042E-01  6.7594774810371E-01
151  1.5000000000000E+00 -2.4106276148105E-01  6.0262378632261E-01
152  1.5100000000000E+00 -2.2903137933996E-01  5.2866655005672E-01
153  1.5200000000000E+00 -2.1657046165516E-01  4.5461231696592E-01
154  1.5300000000000E+00 -2.0377797588037E-01  3.8101720209177E-01
155  1.5400000000000E+00 -1.9075571586748E-01  3.0844898556503E-01
156  1.5500000000000E+00 -1.7760792832223E-01  2.3747722193387E-01
157  1.5600000000000E+00 -1.6443961196445E-01  1.6866142274789E-01
158  1.5700000000000E+00 -1.5135444534519E-01  1.0253708463670E-01
159  1.5800000000000E+00 -1.3845229501863E-01  3.9599314319421E-02
160  1.5900000000000E+00 -1.2582624937005E-01 -1.9716233635063E-02
161  1.6000000000000E+00 -1.1355914586190E-01 -7.5055214064020E-02
162  1.6100000000000E+00 -1.0171938274542E-01 -1.2617064549446E-01
163  1.6200000000000E+00 -9.0357814413994E-02 -1.7293968070393E-01
164  1.6300000000000E+00 -7.9513457836499E-02 -2.1531542977715E-01
165  1.6400000000000E+00 -6.9220047138610E-02 -2.5327610000534E-01
166  1.6500000000000E+00 -5.9506180218951E-02 -2.8682343216481E-01
167  1.6600000000000E+00 -5.0395267761831E-02 -3.1598271335621E-01
168  1.6700000000000E+00 -4.1905489644055E-02 -3.4080285056176E-01
169  1.6800000000000E+00 -3.4049789554038E-02 -3.6135626439261E-01
170  1.6900000000000E+00 -2.6835911061115E-02 -3.7773858064645E-01
171  1.7000000000000E+00 -2.0266473992504E-02 -3.9006812820341E-01
172  1.7100000000000E+00 -1.4339090747180E-02 -3.9848524501505E-01
173  1.7200000000000E+00 -9.0465218005613E-03 -4.0315139582814E-01
174  1.7300000000000E+00 -4.3768692078959E-03 -4.0424810762899E-01
175  1.7400000000000E+00 -3.1380683317344E-04 -4.0197572873280E-01
176  1.7500000000000E+00  3.1631544129117E-03 -3.9655201981418E-01
177  1.7600000000000E+00  6.0783695179564E-03 -3.8821059440979E-01
178  1.7700000000000E+00  8.4597305993015E-03 -3.7719920541330E-01
179  1.7800000000000E+00  1.0338311738629E-02 -3.6377790817688E-01
180  1.7900000000000E+00  1.1747988686218E-02 -3.4821710352626E-01
181  1.8000000000000E+00  1.2725037271244E-02 -3.3079548063659E-01
182  1.8100000000000E+00  1.3307713831438E-02 -3.1179787589269E-01
183  1.8200000000000E+00  1.3535821252437E-02 -2.9151306539696E-01
184  1.8300000000000E+00  1.3450264379501E-02 -2.7023150967531E-01
185  1.8400000000000E+00  1.3092598639515E-02 -2.4824306945138E-01
186  1.8500000000000E+00  1.2504575817704E-02 -2.2583471192655E-01
187  1.8600000000000E+00  1.1727690964666E-02 -2.0328822714373E-01
188  1.8700000000000E+00  1.0802735491432E-02 -1.8087797818156E-01
189  1.8800000000000E+00  9.7693517292862E-03 -1.5886867138480E-01
190  1.8900000000000E+00  8.6656215285178E-03 -1.3751327555735E-01
191  1.9000000000000E+00  7.5276519664091E-03 -1.1705095140444E-01
192  1.9100000000000E+00  6.3887881461942E-03 -9.7703593809129E-02
193  1.9200000000000E+00  5.2773643105146E-03 -7.9666611010638E-02
194  1.9300000000000E+00  4.2210211639828E-03 -6.3125133830889E-02
195  1.9400000000000E+00  3.2458768664019E-03 -4.8250694771679E-02
196  1.9500000000000E+00  2.3738739758741E-03 -3.5190820592685E-02
197  1.9600000000000E+00  1.6229455080970E-03 -2.4069335942051E-02
198  1.9700000000000E+00  1.0067554211843E-03 -1.4985122262585E-02
199  1.9800000000000E+00  5.3472148073105E-04 -8.0142195977689E-03
200  1.9900000000000E+00  2.0961162688151E-04 -3.1731951232280E-03
201  2.0000000000000E+00  4.0130605541385E-05 -6.1629078270938E-04
202  2.0100000000000E+00 -4.2826082770617E-06  6.6412385322248E-05
203  2.0200000000000E+00  3.9435683903469E-07 -6.0697948753724E-06
204  2.03  0. -0.
205  2.04 -0.  0.
206  2.05 -0. -0.
207  2.06  0.  0.
208  2.07  0.  0.
209  2.08  0.  0.
210  2.09  0.  0.
211  2.10  0.  0.
212  2.11  0.  0.
213  2.12  0.  0.
214  2.13  0.  0.
215  2.14  0.  0.
216  2.15  0.  0.
217  2.16  0.  0.
218  2.17  0.  0.
219  2.18  0.  0.
220  2.19  0.  0.
221  2.20  0.  0.
222  2.21  0.  0.
223  2.22  0.  0.
224  2.23  0.  0.
225  2.24  0.  0.
226  2.25  0.  0.
227  2.26  0.  0.
228  2.27  0.  0.
229  2.28  0.  0.
230  2.29  0.  0.
231  2.30  0.  0.
232  2.31  0.  0.
233  2.32  0.  0.
234  2.33  0.  0.
235  2.34  0.  0.
236  2.35  0.  0.
237  2.36  0.  0.
238  2.37  0.  0.
239  2.38  0.  0.
240  2.39  0.  0.
241  2.40  0.  0.
242  2.41  0.  0.
243  2.42  0.  0.
244  2.43  0.  0.
245  2.44  0.  0.
246  2.45  0.  0.
247  2.46  0.  0.
248  2.47  0.  0.
249  2.48  0.  0.
250  2.49  0.  0.
251  2.50  0.  0.
252  2.51  0.  0.
253  2.52  0.  0.
254  2.53  0.  0.
255  2.54  0.  0.
256  2.55  0.  0.
257  2.56  0.  0.
258  2.57  0.  0.
259  2.58  0.  0.
260  2.59  0.  0.
261  2.60  0.  0.
262  2.61  0.  0.
263  2.62  0.  0.
264  2.63  0.  0.
265  2.64  0.  0.
266  2.65  0.  0.
267  2.66  0.  0.
268  2.67  0.  0.
269  2.68  0.  0.
270  2.69  0.  0.
271  2.70  0.  0.
272  2.71  0.  0.
273  2.72  0.  0.
274  2.73  0.  0.
275  2.74  0.  0.
276  2.75  0.  0.
277  2.76  0.  0.
278  2.77  0.  0.
279  2.78  0.  0.
280  2.79  0.  0.
281  2.80  0.  0.
282  2.81  0.  0.
283  2.82  0.  0.
284  2.83  0.  0.
285  2.84  0.  0.
286  2.85  0.  0.
287  2.86  0.  0.
288  2.87  0.  0.
289  2.88  0.  0.
290  2.89  0.  0.
291  2.90  0.  0.
292  2.91  0.  0.
293  2.92  0.  0.
294  2.93  0.  0.
295  2.94  0.  0.
296  2.95  0.  0.
297  2.96  0.  0.
298  2.97  0.  0.
299  2.98  0.  0.
300  2.99  0.  0.
301  3.00  0.  0.
302  3.01  0.  0.
303  3.02  0.  0.
304  3.03  0.  0.
305  3.04  0.  0.
306  3.05  0.  0.
307  3.06  0.  0.
308  3.07  0.  0.
309  3.08  0.  0.
310  3.09  0.  0.
311  3.10  0.  0.
312  3.11  0.  0.
313  3.12  0.  0.
314  3.13  0.  0.
315  3.14  0.  0.
316  3.15  0.  0.
317  3.16  0.  0.
318  3.17  0.  0.
319  3.18  0.  0.
320  3.19  0.  0.
321  3.20  0.  0.
322  3.21  0.  0.
323  3.22  0.  0.
324  3.23  0.  0.
325  3.24  0.  0.
326  3.25  0.  0.
327  3.26  0.  0.
328  3.27  0.  0.
329  3.28  0.  0.
330  3.29  0.  0.
331  3.30  0.  0.
332  3.31  0.  0.
333  3.32  0.  0.
334  3.33  0.  0.
335  3.34  0.  0.
336  3.35  0.  0.
337  3.36  0.  0.
338  3.37  0.  0.
339  3.38  0.  0.
340  3.39  0.  0.
341  3.40  0.  0.
342  3.41  0.  0.
343  3.42  0.  0.
344  3.43  0.  0.
345  3.44  0.  0.
346  3.45  0.  0.
347  3.46  0.  0.
348  3.47  0.  0.
349  3.48  0.  0.
350  3.49  0.  0.
351  3.50  0.  0.
352  3.51  0.  0.
353  3.52  0.  0.
354  3.53  0.  0.
355  3.54  0.  0.
356  3.55  0.  0.
357  3.56  0.  0.
358  3.57  0.  0.
359  3.58  0.  0.
360  3.59  0.  0.
361  3.60  0.  0.
362  3.61  0.  0.
363  3.62  0.  0.
364  3.63  0.  0.
365  3.64  0.  0.
366  3.65  0.  0.
367  3.66  0.  0.
368  3.67  0.  0.
369  3.68  0.  0.
370  3.69  0.  0.
371  3.70  0.  0.
372  3.71  0.  0.
373  3.72  0.  0.
374  3.73  0.  0.
375  3.74  0.  0.
376  3.75  0.  0.
377  3.76  0.  0.
378  3.77  0.  0.
379  3.78  0.  0.
380  3.79  0.  0.
381  3.80  0.  0.
382  3.81  0.  0.
383  3.82  0.  0.
384  3.83  0.  0.
385  3.84  0.  0.
386  3.85  0.  0.
387  3.86  0.  0.
388  3.87  0.  0.
389  3.88  0.  0.
390  3.89  0.  0.
391  3.90  0.  0.
392  3.91  0.  0.
393  3.92  0.  0.
394  3.93  0.  0.
395  3.94  0.  0.
396  3.95  0.  0.
397  3.96  0.  0.
398  3.97  0.  0.
399  3.98  0.  0.
400  3.99  0.  0.
401  4.00  0.  0.
402  4.01  0.  0.
403  4.02  0.  0.
404  4.03  0.  0.
405  4.04  0.  0.
406  4.05  0.  0.
407  4.06  0.  0.
408  4.07  0.  0.
409  4.08  0.  0.
410  4.09  0.  0.
411  4.10  0.  0.
412  4.11  0.  0.
413  4.12  0.  0.
414  4.13  0.  0.
415  4.14  0.  0.
416  4.15  0.  0.
417  4.16  0.  0.
418  4.17  0.  0.
419  4.18  0.  0.
420  4.19  0.  0.
421  4.20  0.  0.
422  4.21  0.  0.
423  4.22  0.  0.
424  4.23  0.  0.
425  4.24  0.  0.
426  4.25  0.  0.
427  4.26  0.  0.
428  4.27  0.  0.
429  4.28  0.  0.
430  4.29  0.  0.
431  4.30  0.  0.
432  4.31  0.  0.
433  4.32  0.  0.
434  4.33  0.  0.
435  4.34  0.  0.
436  4.35  0.  0.
437  4.36  0.  0.
438  4.37  0.  0.
439  4.38  0.  0.
440  4.39  0.  0.
441  4.40  0.  0.
442  4.41  0.  0.
443  4.42  0.  0.
444  4.43  0.  0.
445  4.44  0.  0.
446  4.45  0.  0.
447  4.46  0.  0.
448  4.47  0.  0.
449  4.48  0.  0.
450  4.49  0.  0.
451  4.50  0.  0.
452  4.51  0.  0.
453  4.52  0.  0.
454  4.53  0.  0.
455  4.54  0.  0.
456  4.55  0.  0.
457  4.56  0.  0.
458  4.57  0.  0.
459  4.58  0.  0.
460  4.59  0.  0.
461  4.60  0.  0.
462  4.61  0.  0.
463  4.62  0.  0.
464  4.63  0.  0.
465  4.64  0.  0.
466  4.65  0.  0.
467  4.66  0.  0.
468  4.67  0.  0.
469  4.68  0.  0.
470  4.69  0.  0.
471  4.70  0.  0.
472  4.71  0.  0.
473  4.72  0.  0.
474  4.73  0.  0.
475  4.74  0.  0.
476  4.75  0.  0.
477  4.76  0.  0.
478  4.77  0.  0.
479  4.78  0.  0.
480  4.79  0.  0.
481  4.80  0.  0.
482  4.81  0.  0.
483  4.82  0.  0.
484  4.83  0.  0.
485  4.84  0.  0.
486  4.85  0.  0.
487  4.86  0.  0.
488  4.87  0.  0.
489  4.88  0.  0.
490  4.89  0.  0.
491  4.90  0.  0.
492  4.91  0.  0.
493  4.92  0.  0.
494  4.93  0.  0.
495  4.94  0.  0.
496  4.95  0.  0.
497  4.96  0.  0.
498  4.97  0.  0.
499  4.98  0.  0.
500  4.99  0.  0.
501  5.00  0.  0.
502  5.01  0.  0.
503  5.02  0.  0.
504  5.03  0.  0.
505  5.04  0.  0.
506  5.05  0.  0.
507  5.06  0.  0.
508  5.07  0.  0.
509  5.08  0.  0.
510  5.09  0.  0.
511  5.10  0.  0.
512  5.11  0.  0.
513  5.12  0.  0.
514  5.13  0.  0.
515  5.14  0.  0.
516  5.15  0.  0.
517  5.16  0.  0.
518  5.17  0.  0.
519  5.18  0.  0.
520  5.19  0.  0.
521  5.20  0.  0.
522  5.21  0.  0.
523  5.22  0.  0.
524  5.23  0.  0.
525  5.24  0.  0.
526  5.25  0.  0.
527  5.26  0.  0.
528  5.27  0.  0.
529  5.28  0.  0.
530  5.29  0.  0.
531  5.30  0.  0.
532  5.31  0.  0.
533  5.32  0.  0.
534  5.33  0.  0.
535  5.34  0.  0.
536  5.35  0.  0.
537  5.36  0.  0.
538  5.37  0.  0.
539  5.38  0.  0.
540  5.39  0.  0.
541  5.40  0.  0.
542  5.41  0.  0.
543  5.42  0.  0.
544  5.43  0.  0.
545  5.44  0.  0.
546  5.45  0.  0.
547  5.46  0.  0.
548  5.47  0.  0.
549  5.48  0.  0.
550  5.49  0.  0.
551  5.50  0.  0.
552  5.51  0.  0.
553  5.52  0.  0.
554  5.53  0.  0.
555  5.54  0.  0.
556  5.55  0.  0.
557  5.56  0.  0.
558  5.57  0.  0.
559  5.58  0.  0.
560  5.59  0.  0.
561  5.60  0.  0.
562  5.61  0.  0.
563  5.62  0.  0.
564  5.63  0.  0.
565  5.64  0.  0.
566  5.65  0.  0.
567  5.66  0.  0.
568  5.67  0.  0.
569  5.68  0.  0.
570  5.69  0.  0.
571  5.70  0.  0.
572  5.71  0.  0.
573  5.72  0.  0.
574  5.73  0.  0.
575  5.74  0.  0.
576  5.75  0.  0.
577  5.76  0.  0.
578  5.77  0.  0.
579  5.78  0.  0.
580  5.79  0.  0.
581  5.80  0.  0.
582  5.81  0.  0.
583  5.82  0.  0.
584  5.83  0.  0.
585  5.84  0.  0.
586  5.85  0.  0.
587  5.86  0.  0.
588  5.87  0.  0.
589  5.88  0.  0.
590  5.89  0.  0.
591  5.90  0.  0.
592  5.91  0.  0.
593  5.92  0.  0.
594  5.93  0.  0.
595  5.94  0.  0.
596  5.95  0.  0.
597  5.96  0.  0.
598  5.97  0.  0.
599  5.98  0.  0.
600  5.99  0.  0.
1                         4.9430405585034E+00  3.4386501388790E-01
1  0.0000000000000E+00  8.1091727638372E-09 -6.5829199397127E-08
2  1.0000000000000E-02  1.3624687447163E-03 -4.2658208180144E-03
3  2.0000000000000E-02  5.4360658425303E-03 -1.6963769859610E-02
4  3.0000000000000E-02  1.2179610549894E-02 -3.7797308683277E-02
5  4.0000000000000E-02  2.1525285745506E-02 -6.6278840591052E-02
6  5.0000000000000E-02  3.3379847514202E-02 -1.0173952726268E-01
7  6.0000000000000E-02  4.7626285704847E-02 -1.4334276581036E-01
8  7.0000000000000E-02  6.4125903358122E-02 -1.9010106606571E-01
9  8.0000000000000E-02  8.2720774790948E-02 -2.4089600208133E-01
10  9.0000000000000E-02  1.0323653478488E-01 -2.9450085216284E-01
11  1.0000000000000E-01  1.2548544489753E-01 -3.4960548937720E-01
12  1.1000000000000E-01  1.4926967752256E-01 -4.0484304040361E-01
13  1.2000000000000E-01  1.7438475406979E-01 -4.5881779564891E-01
14  1.3000000000000E-01  2.0062307060493E-01 -5.1013382840667E-01
15  1.4000000000000E-01  2.2777744253898E-01 -5.5742376599280E-01
16  1.5000000000000E-01  2.5564459952533E-01 -5.9937715152931E-01
17  1.6000000000000E-01  2.8402856261943E-01 -6.3476784147669E-01
18  1.7000000000000E-01  3.1274383796653E-01 -6.6247990102707E-01
19  1.8000000000000E-01  3.4161836476874E-01 -6.8153148676661E-01
20  1.9000000000000E-01  3.7049615997891E-01 -6.9109624310197E-01
21  2.0000000000000E-01  3.9923960798987E-01 -6.9052178514332E-01
22  2.1000000000000E-01  4.2773135042399E-01 -6.7934489519454E-01
23  2.2000000000000E-01  4.5587573885258E-01 -6.5730312171258E-01
24  2.3000000000000E-01  4.8359982174230E-01 -6.2434253741629E-01
25  2.4000000000000E-01  5.1085384597598E-01 -5.8062148588731E-01
26  2.5000000000000E-01  5.3761126275799E-01 -5.2651022215364E-01
27  2.6000000000000E-01  5.6386823740894E-01 -4.6258643095546E-01
28  2.7000000000000E-01  5.8964267229699E-01 -3.8962668519042E-01
29  2.8000000000000E-01  6.1497276175677E-01 -3.0859398494148E-01
30  2.9000000000000E-01  6.3991510712788E-01 -2.2062159302663E-01
31  3.0000000000000E-01  6.6454242882392E-01 -1.2699345474845E-01
32  3.1000000000000E-01  6.8894092044978E-01 -2.9121556092275E-02
33  3.2000000000000E-01  7.1320729726210E-01  7.1479365247773E-02
34  3.3000000000000E-01  7.3744559757101E-01  1.7321928910428E-01
35  3.4000000000000E-01  7.6176380088652E-01  2.7446205151134E-01
36  3.5000000000000E-01  7.8627033061416E-01  3.7355560756527E-01
37  3.6000000000000E-01  8.1107051181985E-01  4.6886284895681E-01
38  3.7000000000000E-01  8.3626305595360E-01  5.5879239306847E-01
39  3.8000000000000E-01  8.6193664441335E-01  6.4182875790936E-01
40  3.9000000000000E-01  8.8816668143502E-01  7.1656134560795E-01
41  4.0000000000000E-01  9.1501228403225E-01  7.8171167658998E-01
42  4.1000000000000E-01  9.4251357262361E-01  8.3615834661840E-01
43  4.2000000000000E-01  9.7068932064608E-01  8.7895921904950E-01
44  4.3000000000000E-01  9.9953501495551E-01  9.0937041425414E-01
45  4.4000000000000E-01  1.0290213712745E+00  9.2686171627651E-01
46  4.5000000000000E-01  1.0590933405018E+00  9.3112808240269E-01
47  4.6000000000000E-01  1.0896696324999E+00  9.2209701319018E-01
48  4.7000000000000E-01  1.1206427742027E+00  8.9993161734290E-01
49  4.8000000000000E-01  1.1518797087048E+00  8.6502928618623E-01
50  4.9000000000000E-01  1.1832229316170E+00  8.1801597490702E-01
51  5.0000000000000E-01  1.2144921505715E+00  7.5973617063341E-01
52  5.1000000000000E-01  1.2454864435550E+00  6.9123870928261E-01
53  5.2000000000000E-01  1.2759868819202E+00  6.1375868235479E-01
54  5.3000000000000E-01  1.3057595746645E+00  5.2869574999278E-01
55  5.4000000000000E-01  1.3345590820628E+00  4.3758924622548E-01
56  5.5000000000000E-01  1.3621321391444E+00  3.4209052502750E-01
57  5.6000000000000E-01  1.3882216229857E+00  2.4393305044211E-01
58  5.7000000000000E-01  1.4125706924619E+00  1.4490077945698E-01
59  5.8000000000000E-01  1.4349270250868E+00  4.6795421687971E-02
60  5.9000000000000E-01  1.4550470729462E+00 -4.8596815506940E-02
61  6.0000000000000E-01  1.4727002585629E+00 -1.3953837461274E-01
62  6.1000000000000E-01  1.4876730318501E+00 -2.2437276475536E-01
63  6.2000000000000E-01  1.4997727111184E+00 -3.0155563433632E-01
64  6.3000000000000E-01  1.5088310343834E+00 -3.6968390784014E-01
65  6.4000000000000E-01  1.5147073519147E+00 -4.2752242812145E-01
66  6.5000000000000E-01  1.5172913970044E+00 -4.7402758914821E-01
67  6.6000000000000E-01  1.5165055792028E+00 -5.0836749778862E-01
68  6.7000000000000E-01  1.5123067526483E+00 -5.2993826582094E-01
69  6.8000000000000E-01  1.5046874214509E+00 -5.3837610380122E-01
70  6.9000000000000E-01  1.4936763542142E+00 -5.3356496544681E-01
71  7.0000000000000E-01  1.4793385905042E+00 -5.1563957338934E-01
72  7.1000000000000E-01  1.4617748332029E+00 -4.8498374297805E-01
73  7.2000000000000E-01  1.4411202320161E+00 -4.4222400870575E-01
74  7.3000000000000E-01  1.4175425747137E+00 -3.8821864611160E-01
75  7.4000000000000E-01  1.3912399137733E+00 -3.2404226905608E-01
76  7.5000000000000E-01  1.3624376667410E+00 -2.5096626639987E-01
77  7.6000000000000E-01  1.3313852386374E+00 -1.7043542175576E-01
78  7.7000000000000E-01  1.2983522239034E+00 -8.4041133603829E-02
79  7.8000000000000E-01  1.2636242535488E+00  6.5082807619378E-03
80  7.9000000000000E-01  1.2274985601509E+00  9.9419656533277E-02
81  8.0000000000000E-01  1.1902793390281E+00  1.9284883940752E-01
82  8.1000000000000E-01  1.1522729881656E+00  2.8493570499792E-01
83  8.2000000000000E-01  1.1137833122014E+00  3.7383968904673E-01
84  8.3000000000000E-01  1.0751067769402E+00  4.5777516467768E-01
85  8.4000000000000E-01  1.0365279004094E+00  5.3504600213670E-01
86  8.5000000000000E-01  9.9831486441266E-01  6.0407865814735E-01
87  8.6000000000000E-01  9.6071542689471E-01  6.6345316599081E-01
88  8.7000000000000E-01  9.2395321026891E-01  7.1193143331532E-01
89  8.8000000000000E-01  8.8822443426694E-01  7.4848230186916E-01
90  8.9000000000000E-01  8.5369515395904E-01  7.7230288099621E-01
91  9.0000000000000E-01  8.2049905450972E-01  7.8283573379679E-01
92  9.1000000000000E-01  7.8873584414016E-01  7.7978157012251E-01
93  9.2000000000000E-01  7.5847027585079E-01  7.6310718265141E-01
94  9.3000000000000E-01  7.2973181691528E-01  7.3304844967840E-01
95  9.4000000000000E-01  7.0251497320623E-01  6.9010831932441E-01
96  9.5000000000000E-01  6.7678026327581E-01  6.3504978292021E-01
97  9.6000000000000E-01  6.5245582501763E-01  5.6888393862217E-01
98  9.7000000000000E-01  6.2943962590863E-01  4.9285333811316E-01
99  9.8000000000000E-01  6.0760223649636E-01  4.0841089778886E-01
100  9.9000000000000E-01  5.8679011616684E-01  3.1719473950422E-01
101  1.0000000000000E+00  5.6682935051275E-01  2.2099940310637E-01
102  1.0100000000000E+00  5.4752977100198E-01  1.2174394218216E-01
103  1.0200000000000E+00  5.2868938028766E-01  2.1437474387527E-02
104  1.0300000000000E+00  5.1009900054748E-01 -7.7857192757511E-02
105  1.0400000000000E+00  4.9154705781190E-01 -1.7406120160686E-01
106  1.0500000000000E+00  4.7282441241780E-01 -2.6511786461480E-01
107  1.0600000000000E+00  4.5372914457268E-01 -3.4903076661638E-01
108  1.0700000000000E+00  4.3407120455444E-01 -4.2390105021253E-01
109  1.0800000000000E+00  4.1367683930197E-01 -4.8796319773261E-01
110  1.0900000000000E+00  3.9239271103345E-01 -5.3961864838633E-01
111  1.1000000000000E+00  3.7008962898504E-01 -5.7746662655585E-01
112  1.1100000000000E+00  3.4666582232137E-01 -6.0033160623006E-01
113  1.1200000000000E+00  3.2204969054623E-01 -6.0728689603236E-01
114  1.1300000000000E+00  2.9620197727851E-01 -5.9767389871419E-01
115  1.1400000000000E+00  2.6911732374489E-01 -5.7111667611592E-01
116  1.1500000000000E+00  2.4082516975307E-01 -5.2753153526610E-01
117  1.1600000000000E+00  2.1138998183391E-01 -4.6713144041044E-01
118  1.1700000000000E+00  1.8091080067733E-01 -3.9042514935955E-01
119  1.1800000000000E+00  1.4952011247720E-01 -2.9821106715446E-01
120  1.1900000000000E+00  1.1738206132362E-01 -1.9156590553302E-01
121  1.2000000000000E+00  8.4690031931908E-02 -7.1828329963784E-02
122  1.2100000000000E+00  5.1663643656849E-02  5.9422133818702E-02
123  1.2200000000000E+00  1.8545207674057E-02  2.0039057656025E-01
124  1.2300000000000E+00 -1.4404290864455E-02  3.4909613010367E-01
125  1.2400000000000E+00 -4.6909615002571E-02  5.0340483352086E-01
126  1.2500000000000E+00 -7.8686024268721E-02  6.6106537341502E-01
127  1.2600000000000E+00 -1.0944426473420E-01  8.1974708001597E-01
128  1.2700000000000E+00 -1.3889571190594E-01  9.7707952093270E-01
129  1.2800000000000E+00 -1.6675757456841E-01  1.1306930067382E+00
130  1.2900000000000E+00 -1.9275806638930E-01  1.2782593070187E+00
131  1.3000000000000E+00 -2.1664145251152E-01  1.4175318726513E+00
132  1.3100000000000E+00 -2.3817288043423E-01  1.5463848696727E+00
133  1.3200000000000E+00 -2.5714290819076E-01  1.6628503518485E+00
134  1.3300000000000E+00 -2.7337164812093E-01  1.7651529326895E+00