Tb    ONCVPSP-4.0.1  r_core=   2.00838   1.60001   1.90311   1.50710
65.0000     19.0000      250626    zatom,zion,pspd
8      11   3     4   600     0    pspcod,pspxc,lmax,lloc,mmax,r2well
5.99000000 12.80000000  0.00000000    rchrg fchrg qchrg
2     2     2     2     0    nproj
1     1           extension_switch
0                         6.9601745476708E+00  7.6307333294255E-01
1  0.0000000000000E+00  7.9669604247101E-11 -2.5421418442528E-10
2  1.0000000000000E-02  4.1133914236963E-02 -3.6257296684521E-03
3  2.0000000000000E-02  8.2246690329263E-02 -7.2835227954500E-03
4  3.0000000000000E-02  1.2331701127354E-01 -1.1004862954308E-02
5  4.0000000000000E-02  1.6432320448430E-01 -1.4820080349551E-02
6  5.0000000000000E-02  2.0524306932056E-01 -1.8757791071589E-02
7  6.0000000000000E-02  2.4605371093697E-01 -2.2844355296629E-02
8  7.0000000000000E-02  2.8673138247321E-01 -2.7103360445948E-02
9  8.0000000000000E-02  3.2725133751605E-01 -3.1555135064492E-02
10  9.0000000000000E-02  3.6758769466987E-01 -3.6216298865504E-02
11  1.0000000000000E-01  4.0771331595603E-01 -4.1099354018786E-02
12  1.1000000000000E-01  4.4759970062841E-01 -4.6212322338567E-02
13  1.2000000000000E-01  4.8721689584508E-01 -5.1558432557060E-02
14  1.3000000000000E-01  5.2653342547351E-01 -5.7135861355941E-02
15  1.4000000000000E-01  5.6551623813266E-01 -6.2937531275407E-02
16  1.5000000000000E-01  6.0413067538929E-01 -6.8950968034210E-02
17  1.6000000000000E-01  6.4234046083125E-01 -7.5158219180162E-02
18  1.7000000000000E-01  6.8010771053796E-01 -8.1535835354686E-02
19  1.8000000000000E-01  7.1739296526032E-01 -8.8054914803724E-02
20  1.9000000000000E-01  7.5415524441045E-01 -9.4681211106522E-02
21  2.0000000000000E-01  7.9035212174827E-01 -1.0137530343073E-01
22  2.1000000000000E-01  8.2593982243856E-01 -1.0809282796281E-01
23  2.2000000000000E-01  8.6087334094090E-01 -1.1478476851417E-01
24  2.3000000000000E-01  8.9510657898830E-01 -1.2139780367151E-01
25  2.4000000000000E-01  9.2859250270928E-01 -1.2787470725181E-01
26  2.5000000000000E-01  9.6128331775559E-01 -1.3415479824417E-01
27  2.6000000000000E-01  9.9313066111481E-01 -1.4017443587736E-01
28  2.7000000000000E-01  1.0240858081161E+00 -1.4586755495151E-01
29  2.8000000000000E-01  1.0540998929793E+00 -1.5116623611674E-01
30  2.9000000000000E-01  1.0831241411139E+00 -1.5600130537959E-01
31  3.0000000000000E-01  1.1111101112495E+00 -1.6030295677052E-01
32  3.1000000000000E-01  1.1380099453676E+00 -1.6400139181924E-01
33  3.2000000000000E-01  1.1637766243150E+00 -1.6702746926117E-01
34  3.3000000000000E-01  1.1883642269087E+00 -1.6931335824100E-01
35  3.4000000000000E-01  1.2117281902909E+00 -1.7079318819050E-01
36  3.5000000000000E-01  1.2338255692614E+00 -1.7140368853860E-01
37  3.6000000000000E-01  1.2546152923085E+00 -1.7108481146341E-01
38  3.7000000000000E-01  1.2740584120714E+00 -1.6978033101809E-01
39  3.8000000000000E-01  1.2921183480007E+00 -1.6743841215522E-01
40  3.9000000000000E-01  1.3087611190409E+00 -1.6401214343576E-01
41  4.0000000000000E-01  1.3239555642339E+00 -1.5946002753693E-01
42  4.1000000000000E-01  1.3376735492404E+00 -1.5374642406613E-01
43  4.2000000000000E-01  1.3498901568911E+00 -1.4684193964166E-01
44  4.3000000000000E-01  1.3605838600142E+00 -1.3872376071082E-01
45  4.4000000000000E-01  1.3697366749394E+00 -1.2937592513915E-01
46  4.5000000000000E-01  1.3773342942422E+00 -1.1878952921358E-01
47  4.6000000000000E-01  1.3833661974775E+00 -1.0696286735345E-01
48  4.7000000000000E-01  1.3878257388442E+00 -9.3901502508454E-02
49  4.8000000000000E-01  1.3907102109278E+00 -7.9618265937457E-02
50  4.9000000000000E-01  1.3920208838811E+00 -6.4133185796369E-02
51  5.0000000000000E-01  1.3917630196264E+00 -4.7473344713147E-02
52  5.1000000000000E-01  1.3899458608835E+00 -2.9672667282941E-02
53  5.2000000000000E-01  1.3865825950612E+00 -1.0771639170515E-02
54  5.3000000000000E-01  1.3816902932729E+00  9.1830397485176E-03
55  5.4000000000000E-01  1.3752898249672E+00  3.0138865048384E-02
56  5.5000000000000E-01  1.3674057488852E+00  5.2037996353936E-02
57  5.6000000000000E-01  1.3580661812701E+00  7.4817780350115E-02
58  5.7000000000000E-01  1.3473026424669E+00  9.8411323037463E-02
59  5.8000000000000E-01  1.3351498832424E+00  1.2274810548840E-01
60  5.9000000000000E-01  1.3216456923423E+00  1.4775463682897E-01
61  6.0000000000000E-01  1.3068306869726E+00  1.7335513769981E-01
62  6.1000000000000E-01  1.2907480880463E+00  1.9947224704591E-01
63  6.2000000000000E-01  1.2734434821737E+00  2.2602774474926E-01
64  6.3000000000000E-01  1.2549645724909E+00  2.5294328235807E-01
65  6.4000000000000E-01  1.2353609205207E+00  2.8014111398484E-01
66  6.5000000000000E-01  1.2146836813365E+00  3.0754481934305E-01
67  6.6000000000000E-01  1.1929853343520E+00  3.3508001087471E-01
68  6.7000000000000E-01  1.1703194120961E+00  3.6267501698650E-01
69  6.8000000000000E-01  1.1467402293383E+00  3.9026153356168E-01
70  6.9000000000000E-01  1.1223026149188E+00  4.1777523614922E-01
71  7.0000000000000E-01  1.0970616486008E+00  4.4515634554730E-01
72  7.1000000000000E-01  1.0710724052050E+00  4.7235013989369E-01
73  7.2000000000000E-01  1.0443897082060E+00  4.9930740684852E-01
74  7.3000000000000E-01  1.0170678948697E+00  5.2598482999980E-01
75  7.4000000000000E-01  9.8916059489188E-01  5.5234530423446E-01
76  7.5000000000000E-01  9.6072052435609E-01  5.7835817549349E-01
77  7.6000000000000E-01  9.3179929667695E-01  6.0399940106020E-01
78  7.7000000000000E-01  9.0244725202022E-01  6.2925162731111E-01
79  7.8000000000000E-01  8.7271330650746E-01  6.5410418268116E-01
80  7.9000000000000E-01  8.4264482231535E-01  6.7855298445065E-01
81  8.0000000000000E-01  8.1228749957269E-01  7.0260035884316E-01
82  8.1000000000000E-01  7.8168529074315E-01  7.2625477482293E-01
83  8.2000000000000E-01  7.5088033796091E-01  7.4953049288758E-01
84  8.3000000000000E-01  7.1991293356178E-01  7.7244713106015E-01
85  8.4000000000000E-01  6.8882150382656E-01  7.9502915118339E-01
86  8.5000000000000E-01  6.5764261572733E-01  8.1730526950082E-01
87  8.6000000000000E-01  6.2641100624472E-01  8.3930779636593E-01
88  8.7000000000000E-01  5.9515963360521E-01  8.6107191074358E-01
89  8.8000000000000E-01  5.6391974957555E-01  8.8263487594924E-01
90  8.9000000000000E-01  5.3272099174675E-01  9.0403520380623E-01
91  9.0000000000000E-01  5.0159149454555E-01  9.2531177507989E-01
92  9.1000000000000E-01  4.7055801752759E-01  9.4650292466689E-01
93  9.2000000000000E-01  4.3964608933488E-01  9.6764550057116E-01
94  9.3000000000000E-01  4.0888016554189E-01  9.8877390618191E-01
95  9.4000000000000E-01  3.7828379847073E-01  1.0099191357790E+00
96  9.5000000000000E-01  3.4787981692616E-01  1.0311078135250E+00
97  9.6000000000000E-01  3.1769051368733E-01  1.0523612464581E+00
98  9.7000000000000E-01  2.8773783849464E-01  1.0736945021773E+00
99  9.8000000000000E-01  2.5804359418701E-01  1.0951155220030E+00
100  9.9000000000000E-01  2.2862963357771E-01  1.1166242804167E+00
101  1.0000000000000E+00  1.9951805460506E-01  1.1382120015129E+00
102  1.0100000000000E+00  1.7073139125740E-01  1.1598604430577E+00
103  1.0200000000000E+00  1.4229279775007E-01  1.1815412585278E+00
104  1.0300000000000E+00  1.1422622342427E-01  1.2032154472067E+00
105  1.0400000000000E+00  8.6556575843948E-02  1.2248329020522E+00
106  1.0500000000000E+00  5.9309869586667E-02  1.2463320646075E+00
107  1.0600000000000E+00  3.2513358257176E-02  1.2676396957233E+00
108  1.0700000000000E+00  6.1956472979228E-03  1.2886707702875E+00
109  1.0800000000000E+00 -1.9613214770752E-02  1.3093285035178E+00
110  1.0900000000000E+00 -4.4881668976891E-02  1.3295045156736E+00
111  1.1000000000000E+00 -6.9576604601555E-02  1.3490791412756E+00
112  1.1100000000000E+00 -9.3663346075581E-02  1.3679218880911E+00
113  1.1200000000000E+00 -1.1710567006965E-01  1.3858920502473E+00
114  1.1300000000000E+00 -1.3986585465001E-01  1.4028394788648E+00
115  1.1400000000000E+00 -1.6190476222613E-01  1.4186055125676E+00
116  1.1500000000000E+00 -1.8318195785010E-01  1.4330240691029E+00
117  1.1600000000000E+00 -2.0365586423958E-01  1.4459228981007E+00
118  1.1700000000000E+00 -2.2328395468157E-01  1.4571249937002E+00
119  1.1800000000000E+00 -2.4202298473178E-01  1.4664501643653E+00
120  1.1900000000000E+00 -2.5982926334787E-01  1.4737167556837E+00
121  1.2000000000000E+00 -2.7665896378038E-01  1.4787435202878E+00
122  1.2100000000000E+00 -2.9246847418929E-01  1.4813516272312E+00
123  1.2200000000000E+00 -3.0721478754602E-01  1.4813668011760E+00
124  1.2300000000000E+00 -3.2085592992209E-01  1.4786215795949E+00
125  1.2400000000000E+00 -3.3335142574090E-01  1.4729576738178E+00
126  1.2500000000000E+00 -3.4466279797674E-01  1.4642284171538E+00
127  1.2600000000000E+00 -3.5475410061851E-01  1.4523012804724E+00
128  1.2700000000000E+00 -3.6359247995755E-01  1.4370604324728E+00
129  1.2800000000000E+00 -3.7114876041201E-01  1.4184093184262E+00
130  1.2900000000000E+00 -3.7739804965075E-01  1.3962732273860E+00
131  1.3000000000000E+00 -3.8232035671122E-01  1.3706018136744E+00
132  1.3100000000000E+00 -3.8590121561964E-01  1.3413715338821E+00
133  1.3200000000000E+00 -3.8813230570707E-01  1.3085879556112E+00
134  1.3300000000000E+00 -3.8901205834343E-01  1.2722878886661E+00
135  1.3400000000000E+00 -3.8854623819841E-01  1.2325412833962E+00
136  1.3500000000000E+00 -3.8674848535366E-01  1.1894528343213E+00
137  1.3600000000000E+00 -3.8364080263160E-01  1.1431632200122E+00
138  1.3700000000000E+00 -3.7925397035112E-01  1.0938499023794E+00
139  1.3800000000000E+00 -3.7362786837280E-01  1.0417274000544E+00
140  1.3900000000000E+00 -3.6681168272735E-01  9.8704694133370E-01
141  1.4000000000000E+00 -3.5886397133518E-01  9.3009539220175E-01
142  1.4100000000000E+00 -3.4985256027905E-01  8.7119334411069E-01
143  1.4200000000000E+00 -3.3985423881292E-01  8.1069223456244E-01
144  1.4300000000000E+00 -3.2895421772661E-01  7.4897036092771E-01
145  1.4400000000000E+00 -3.1724531184204E-01  6.8642763436259E-01
146  1.4500000000000E+00 -3.0482680328236E-01  6.2347890610517E-01
147  1.4600000000000E+00 -2.9180293767483E-01  5.6054568265676E-01
148  1.4700000000000E+00 -2.7828100066486E-01  4.9804602951836E-01
149  1.4800000000000E+00 -2.6436891695897E-01  4.3638244500622E-01
150  1.4900000000000E+00 -2.5017230626727E-01  3.7592745319324E-01
151  1.5000000000000E+00 -2.3579096129963E-01  3.1700685425472E-01
152  1.5100000000000E+00 -2.2131447512618E-01  2.5987920960597E-01
153  1.5200000000000E+00 -2.0681973028903E-01  2.0472738698071E-01
154  1.5300000000000E+00 -1.9237677349946E-01  1.5169793986465E-01
155  1.5400000000000E+00 -1.7805350850527E-01  1.0093041177163E-01
156  1.5500000000000E+00 -1.6391529986703E-01  5.2555957063479E-02
157  1.5600000000000E+00 -1.5002465832222E-01  6.6964359993201E-03
158  1.5700000000000E+00 -1.3644089660005E-01 -3.6536715760513E-02
159  1.5800000000000E+00 -1.2321980347505E-01 -7.7043556957000E-02
160  1.5900000000000E+00 -1.1041334120819E-01 -1.1473662795503E-01
161  1.6000000000000E+00 -9.8069368097350E-02 -1.4954185202259E-01
162  1.6100000000000E+00 -8.6231388856548E-02 -1.8139934093191E-01
163  1.6200000000000E+00 -7.4938335310417E-02 -2.1026409599326E-01
164  1.6300000000000E+00 -6.4224379613812E-02 -2.3610659665271E-01
165  1.6400000000000E+00 -5.4118781991253E-02 -2.5891326946987E-01
166  1.6500000000000E+00 -4.4645775371566E-02 -2.7868682793726E-01
167  1.6600000000000E+00 -3.5824485555897E-02 -2.9544649195285E-01
168  1.6700000000000E+00 -2.7668893101796E-02 -3.0922805732016E-01
169  1.6800000000000E+00 -2.0187832025663E-02 -3.2008384087572E-01
170  1.6900000000000E+00 -1.3385029411000E-02 -3.2808248115336E-01
171  1.7000000000000E+00 -7.2591844683486E-03 -3.3330860183321E-01
172  1.7100000000000E+00 -1.8040869900856E-03 -3.3586233766896E-01
173  1.7200000000000E+00  2.9912255405029E-03 -3.3585872550284E-01
174  1.7300000000000E+00  7.1422732438806E-03 -3.3342696405648E-01
175  1.7400000000000E+00  1.0668902968645E-02 -3.2870954752459E-01
176  1.7500000000000E+00  1.3595023008011E-02 -3.2186127919528E-01
177  1.7600000000000E+00  1.5948305469867E-02 -3.1304817236314E-01
178  1.7700000000000E+00  1.7759858708113E-02 -3.0244624708157E-01
179  1.7800000000000E+00  1.9063872468882E-02 -2.9024023213672E-01
180  1.7900000000000E+00  1.9897238710738E-02 -2.7662218276028E-01
181  1.8000000000000E+00  2.0299151256620E-02 -2.6179002527051E-01
182  1.8100000000000E+00  2.0310687668830E-02 -2.4594604069106E-01
183  1.8200000000000E+00  1.9974376920716E-02 -2.2929530005154E-01
184  1.8300000000000E+00  1.9333756571549E-02 -2.1204406453734E-01
185  1.8400000000000E+00  1.8432923266997E-02 -1.9439816407526E-01
186  1.8500000000000E+00  1.7316080485463E-02 -1.7656136830942E-01
187  1.8600000000000E+00  1.6027087487113E-02 -1.5873376404727E-01
188  1.8700000000000E+00  1.4609013697288E-02 -1.4111015394002E-01
189  1.8800000000000E+00  1.3103700446151E-02 -1.2387848480345E-01
190  1.8900000000000E+00  1.1551335588540E-02 -1.0721832469222E-01
191  1.9000000000000E+00  9.9900696445998E-03 -9.1299468126722E-02
192  1.9100000000000E+00  8.4553721741684E-03 -7.6279814821995E-02
193  1.9200000000000E+00  6.9780357427471E-03 -6.2299150893569E-02
194  1.9300000000000E+00  5.5871626559205E-03 -4.9487761545808E-02
195  1.9400000000000E+00  4.3104244724068E-03 -3.7967137100866E-02
196  1.9500000000000E+00  3.1712895774195E-03 -2.7841691803928E-02
197  1.9600000000000E+00  2.1891541656638E-03 -1.9198968173862E-02
198  1.9700000000000E+00  1.3790932007967E-03 -1.2108771797039E-02
199  1.9800000000000E+00  7.5198646076457E-04 -6.6251785539334E-03
200  1.9900000000000E+00  3.1127011678587E-04 -2.7576274714809E-03
201  2.0000000000000E+00  6.8356558013449E-05 -6.1061800869203E-04
202  2.0100000000000E+00 -3.9387747723108E-06  3.5416528080180E-05
203  2.0200000000000E+00 -4.6923909803215E-07  4.2394348416843E-06
204  2.03  0. -0.
205  2.04 -0.  0.
206  2.05 -0. -0.
207  2.06  0.  0.
208  2.07  0.  0.
209  2.08  0.  0.
210  2.09  0.  0.
211  2.10  0.  0.
212  2.11  0.  0.
213  2.12  0.  0.
214  2.13  0.  0.
215  2.14  0.  0.
216  2.15  0.  0.
217  2.16  0.  0.
218  2.17  0.  0.
219  2.18  0.  0.
220  2.19  0.  0.
221  2.20  0.  0.
222  2.21  0.  0.
223  2.22  0.  0.
224  2.23  0.  0.
225  2.24  0.  0.
226  2.25  0.  0.
227  2.26  0.  0.
228  2.27  0.  0.
229  2.28  0.  0.
230  2.29  0.  0.
231  2.30  0.  0.
232  2.31  0.  0.
233  2.32  0.  0.
234  2.33  0.  0.
235  2.34  0.  0.
236  2.35  0.  0.
237  2.36  0.  0.
238  2.37  0.  0.
239  2.38  0.  0.
240  2.39  0.  0.
241  2.40  0.  0.
242  2.41  0.  0.
243  2.42  0.  0.
244  2.43  0.  0.
245  2.44  0.  0.
246  2.45  0.  0.
247  2.46  0.  0.
248  2.47  0.  0.
249  2.48  0.  0.
250  2.49  0.  0.
251  2.50  0.  0.
252  2.51  0.  0.
253  2.52  0.  0.
254  2.53  0.  0.
255  2.54  0.  0.
256  2.55  0.  0.
257  2.56  0.  0.
258  2.57  0.  0.
259  2.58  0.  0.
260  2.59  0.  0.
261  2.60  0.  0.
262  2.61  0.  0.
263  2.62  0.  0.
264  2.63  0.  0.
265  2.64  0.  0.
266  2.65  0.  0.
267  2.66  0.  0.
268  2.67  0.  0.
269  2.68  0.  0.
270  2.69  0.  0.
271  2.70  0.  0.
272  2.71  0.  0.
273  2.72  0.  0.
274  2.73  0.  0.
275  2.74  0.  0.
276  2.75  0.  0.
277  2.76  0.  0.
278  2.77  0.  0.
279  2.78  0.  0.
280  2.79  0.  0.
281  2.80  0.  0.
282  2.81  0.  0.
283  2.82  0.  0.
284  2.83  0.  0.
285  2.84  0.  0.
286  2.85  0.  0.
287  2.86  0.  0.
288  2.87  0.  0.
289  2.88  0.  0.
290  2.89  0.  0.
291  2.90  0.  0.
292  2.91  0.  0.
293  2.92  0.  0.
294  2.93  0.  0.
295  2.94  0.  0.
296  2.95  0.  0.
297  2.96  0.  0.
298  2.97  0.  0.
299  2.98  0.  0.
300  2.99  0.  0.
301  3.00  0.  0.
302  3.01  0.  0.
303  3.02  0.  0.
304  3.03  0.  0.
305  3.04  0.  0.
306  3.05  0.  0.
307  3.06  0.  0.
308  3.07  0.  0.
309  3.08  0.  0.
310  3.09  0.  0.
311  3.10  0.  0.
312  3.11  0.  0.
313  3.12  0.  0.
314  3.13  0.  0.
315  3.14  0.  0.
316  3.15  0.  0.
317  3.16  0.  0.
318  3.17  0.  0.
319  3.18  0.  0.
320  3.19  0.  0.
321  3.20  0.  0.
322  3.21  0.  0.
323  3.22  0.  0.
324  3.23  0.  0.
325  3.24  0.  0.
326  3.25  0.  0.
327  3.26  0.  0.
328  3.27  0.  0.
329  3.28  0.  0.
330  3.29  0.  0.
331  3.30  0.  0.
332  3.31  0.  0.
333  3.32  0.  0.
334  3.33  0.  0.
335  3.34  0.  0.
336  3.35  0.  0.
337  3.36  0.  0.
338  3.37  0.  0.
339  3.38  0.  0.
340  3.39  0.  0.
341  3.40  0.  0.
342  3.41  0.  0.
343  3.42  0.  0.
344  3.43  0.  0.
345  3.44  0.  0.
346  3.45  0.  0.
347  3.46  0.  0.
348  3.47  0.  0.
349  3.48  0.  0.
350  3.49  0.  0.
351  3.50  0.  0.
352  3.51  0.  0.
353  3.52  0.  0.
354  3.53  0.  0.
355  3.54  0.  0.
356  3.55  0.  0.
357  3.56  0.  0.
358  3.57  0.  0.
359  3.58  0.  0.
360  3.59  0.  0.
361  3.60  0.  0.
362  3.61  0.  0.
363  3.62  0.  0.
364  3.63  0.  0.
365  3.64  0.  0.
366  3.65  0.  0.
367  3.66  0.  0.
368  3.67  0.  0.
369  3.68  0.  0.
370  3.69  0.  0.
371  3.70  0.  0.
372  3.71  0.  0.
373  3.72  0.  0.
374  3.73  0.  0.
375  3.74  0.  0.
376  3.75  0.  0.
377  3.76  0.  0.
378  3.77  0.  0.
379  3.78  0.  0.
380  3.79  0.  0.
381  3.80  0.  0.
382  3.81  0.  0.
383  3.82  0.  0.
384  3.83  0.  0.
385  3.84  0.  0.
386  3.85  0.  0.
387  3.86  0.  0.
388  3.87  0.  0.
389  3.88  0.  0.
390  3.89  0.  0.
391  3.90  0.  0.
392  3.91  0.  0.
393  3.92  0.  0.
394  3.93  0.  0.
395  3.94  0.  0.
396  3.95  0.  0.
397  3.96  0.  0.
398  3.97  0.  0.
399  3.98  0.  0.
400  3.99  0.  0.
401  4.00  0.  0.
402  4.01  0.  0.
403  4.02  0.  0.
404  4.03  0.  0.
405  4.04  0.  0.
406  4.05  0.  0.
407  4.06  0.  0.
408  4.07  0.  0.
409  4.08  0.  0.
410  4.09  0.  0.
411  4.10  0.  0.
412  4.11  0.  0.
413  4.12  0.  0.
414  4.13  0.  0.
415  4.14  0.  0.
416  4.15  0.  0.
417  4.16  0.  0.
418  4.17  0.  0.
419  4.18  0.  0.
420  4.19  0.  0.
421  4.20  0.  0.
422  4.21  0.  0.
423  4.22  0.  0.
424  4.23  0.  0.
425  4.24  0.  0.
426  4.25  0.  0.
427  4.26  0.  0.
428  4.27  0.  0.
429  4.28  0.  0.
430  4.29  0.  0.
431  4.30  0.  0.
432  4.31  0.  0.
433  4.32  0.  0.
434  4.33  0.  0.
435  4.34  0.  0.
436  4.35  0.  0.
437  4.36  0.  0.
438  4.37  0.  0.
439  4.38  0.  0.
440  4.39  0.  0.
441  4.40  0.  0.
442  4.41  0.  0.
443  4.42  0.  0.
444  4.43  0.  0.
445  4.44  0.  0.
446  4.45  0.  0.
447  4.46  0.  0.
448  4.47  0.  0.
449  4.48  0.  0.
450  4.49  0.  0.
451  4.50  0.  0.
452  4.51  0.  0.
453  4.52  0.  0.
454  4.53  0.  0.
455  4.54  0.  0.
456  4.55  0.  0.
457  4.56  0.  0.
458  4.57  0.  0.
459  4.58  0.  0.
460  4.59  0.  0.
461  4.60  0.  0.
462  4.61  0.  0.
463  4.62  0.  0.
464  4.63  0.  0.
465  4.64  0.  0.
466  4.65  0.  0.
467  4.66  0.  0.
468  4.67  0.  0.
469  4.68  0.  0.
470  4.69  0.  0.
471  4.70  0.  0.
472  4.71  0.  0.
473  4.72  0.  0.
474  4.73  0.  0.
475  4.74  0.  0.
476  4.75  0.  0.
477  4.76  0.  0.
478  4.77  0.  0.
479  4.78  0.  0.
480  4.79  0.  0.
481  4.80  0.  0.
482  4.81  0.  0.
483  4.82  0.  0.
484  4.83  0.  0.
485  4.84  0.  0.
486  4.85  0.  0.
487  4.86  0.  0.
488  4.87  0.  0.
489  4.88  0.  0.
490  4.89  0.  0.
491  4.90  0.  0.
492  4.91  0.  0.
493  4.92  0.  0.
494  4.93  0.  0.
495  4.94  0.  0.
496  4.95  0.  0.
497  4.96  0.  0.
498  4.97  0.  0.
499  4.98  0.  0.
500  4.99  0.  0.
501  5.00  0.  0.
502  5.01  0.  0.
503  5.02  0.  0.
504  5.03  0.  0.
505  5.04  0.  0.
506  5.05  0.  0.
507  5.06  0.  0.
508  5.07  0.  0.
509  5.08  0.  0.
510  5.09  0.  0.
511  5.10  0.  0.
512  5.11  0.  0.
513  5.12  0.  0.
514  5.13  0.  0.
515  5.14  0.  0.
516  5.15  0.  0.
517  5.16  0.  0.
518  5.17  0.  0.
519  5.18  0.  0.
520  5.19  0.  0.
521  5.20  0.  0.
522  5.21  0.  0.
523  5.22  0.  0.
524  5.23  0.  0.
525  5.24  0.  0.
526  5.25  0.  0.
527  5.26  0.  0.
528  5.27  0.  0.
529  5.28  0.  0.
530  5.29  0.  0.
531  5.30  0.  0.
532  5.31  0.  0.
533  5.32  0.  0.
534  5.33  0.  0.
535  5.34  0.  0.
536  5.35  0.  0.
537  5.36  0.  0.
538  5.37  0.  0.
539  5.38  0.  0.
540  5.39  0.  0.
541  5.40  0.  0.
542  5.41  0.  0.
543  5.42  0.  0.
544  5.43  0.  0.
545  5.44  0.  0.
546  5.45  0.  0.
547  5.46  0.  0.
548  5.47  0.  0.
549  5.48  0.  0.
550  5.49  0.  0.
551  5.50  0.  0.
552  5.51  0.  0.
553  5.52  0.  0.
554  5.53  0.  0.
555  5.54  0.  0.
556  5.55  0.  0.
557  5.56  0.  0.
558  5.57  0.  0.
559  5.58  0.  0.
560  5.59  0.  0.
561  5.60  0.  0.
562  5.61  0.  0.
563  5.62  0.  0.
564  5.63  0.  0.
565  5.64  0.  0.
566  5.65  0.  0.
567  5.66  0.  0.
568  5.67  0.  0.
569  5.68  0.  0.
570  5.69  0.  0.
571  5.70  0.  0.
572  5.71  0.  0.
573  5.72  0.  0.
574  5.73  0.  0.
575  5.74  0.  0.
576  5.75  0.  0.
577  5.76  0.  0.
578  5.77  0.  0.
579  5.78  0.  0.
580  5.79  0.  0.
581  5.80  0.  0.
582  5.81  0.  0.
583  5.82  0.  0.
584  5.83  0.  0.
585  5.84  0.  0.
586  5.85  0.  0.
587  5.86  0.  0.
588  5.87  0.  0.
589  5.88  0.  0.
590  5.89  0.  0.
591  5.90  0.  0.
592  5.91  0.  0.
593  5.92  0.  0.
594  5.93  0.  0.
595  5.94  0.  0.
596  5.95  0.  0.
597  5.96  0.  0.
598  5.97  0.  0.
599  5.98  0.  0.
600  5.99  0.  0.
1                         5.6909749471728E+00  3.4179069848778E-01
1  0.0000000000000E+00  4.6328198916035E-09 -3.0000562645238E-08
2  1.0000000000000E-02  1.3134460971681E-03 -2.9046764626911E-03
3  2.0000000000000E-02  5.2438103433023E-03 -1.1564704403462E-02
4  3.0000000000000E-02  1.1761320934878E-02 -2.5819052937973E-02
5  4.0000000000000E-02  2.0816856605463E-02 -4.5402564692979E-02
6  5.0000000000000E-02  3.2342684825659E-02 -6.9950736282518E-02
7  6.0000000000000E-02  4.6253476641301E-02 -9.9006290734000E-02
8  7.0000000000000E-02  6.2447579917690E-02 -1.3202742419426E-01
9  8.0000000000000E-02  8.0808528124828E-02 -1.6839757924504E-01
10  9.0000000000000E-02  1.0120675758395E-01 -2.0743656978493E-01
11  1.0000000000000E-01  1.2350150237587E-01 -2.4841285817540E-01
12  1.1000000000000E-01  1.4754283295544E-01 -2.9055676463744E-01
13  1.2000000000000E-01  1.7317380198116E-01 -3.3307437208882E-01
14  1.3000000000000E-01  2.0023265900178E-01 -3.7516187703419E-01
15  1.4000000000000E-01  2.2855509447692E-01 -4.1602012898311E-01
16  1.5000000000000E-01  2.5797647316790E-01 -4.5486909732408E-01
17  1.6000000000000E-01  2.8833401722706E-01 -4.9096200569154E-01
18  1.7000000000000E-01  3.1946890033355E-01 -5.2359887960712E-01
19  1.8000000000000E-01  3.5122821595309E-01 -5.5213926346269E-01
20  1.9000000000000E-01  3.8346678520757E-01 -5.7601387755509E-01
21  2.0000000000000E-01  4.1604877288335E-01 -5.9473500462730E-01
22  2.1000000000000E-01  4.4884908373084E-01 -6.0790541788634E-01
23  2.2000000000000E-01  4.8175451534492E-01 -6.1522568835644E-01
24  2.3000000000000E-01  5.1466464849211E-01 -6.1649973822927E-01
25  2.4000000000000E-01  5.4749246068185E-01 -6.1163853808102E-01
26  2.5000000000000E-01  5.8016465397547E-01 -6.0066187888546E-01
27  2.6000000000000E-01  6.1262169339332E-01 -5.8369818407520E-01
28  2.7000000000000E-01  6.4481755771807E-01 -5.6098236188174E-01
29  2.8000000000000E-01  6.7671920990220E-01 -5.3285173319374E-01
30  2.9000000000000E-01  7.0830579956902E-01 -4.9974010459164E-01
31  3.0000000000000E-01  7.3956761515249E-01 -4.6217008942930E-01
32  3.1000000000000E-01  7.7050480795811E-01 -4.2074381124754E-01
33  3.2000000000000E-01  8.0112591475692E-01 -3.7613215285942E-01
34  3.3000000000000E-01  8.3144620936613E-01 -3.2906274062090E-01
35  3.4000000000000E-01  8.6148591695283E-01 -2.8030687622575E-01
36  3.5000000000000E-01  8.9126832745677E-01 -2.3066564742716E-01
37  3.6000000000000E-01  9.2081784651717E-01 -1.8095546404940E-01
38  3.7000000000000E-01  9.5015802356528E-01 -1.3199327623726E-01
39  3.8000000000000E-01  9.7930959728621E-01 -8.4581737908138E-02
40  3.9000000000000E-01  1.0082885984459E+00 -3.9494579706346E-02
41  4.0000000000000E-01  1.0371045491255E+00  2.5375476138836E-03
42  4.1000000000000E-01  1.0657587957216E+00  4.0840506477700E-02
43  4.2000000000000E-01  1.0942430106810E+00  7.4809142095563E-02
44  4.3000000000000E-01  1.1225378948940E+00  1.0391856486732E-01
45  4.4000000000000E-01  1.1506121090154E+00  1.2773404290344E-01
46  4.5000000000000E-01  1.1784214577856E+00  1.4591932644871E-01
47  4.6000000000000E-01  1.2059083467689E+00  1.5824325365592E-01
48  4.7000000000000E-01  1.2330015258826E+00  1.6458451752326E-01
49  4.8000000000000E-01  1.2596161287626E+00  1.6493450633777E-01
50  4.9000000000000E-01  1.2856540114926E+00  1.5939816407764E-01
51  5.0000000000000E-01  1.3110043886122E+00  1.4819285231026E-01
52  5.1000000000000E-01  1.3355447587235E+00  1.3164523055049E-01
53  5.2000000000000E-01  1.3591421065351E+00  1.1018620718377E-01
54  5.3000000000000E-01  1.3816543629224E+00  8.4344047276859E-02
55  5.4000000000000E-01  1.4029320996345E+00  5.4735756287369E-02
56  5.5000000000000E-01  1.4228204307461E+00  2.2056889247254E-02
57  5.6000000000000E-01  1.4411610889037E+00 -1.2930037105494E-02
58  5.7000000000000E-01  1.4577946409496E+00 -4.9408327047760E-02
59  5.8000000000000E-01  1.4725628046639E+00 -8.6520860133657E-02
60  5.9000000000000E-01  1.4853108262260E+00 -1.2338457657077E-01
61  6.0000000000000E-01  1.4958898765774E+00 -1.5910544046803E-01
62  6.1000000000000E-01  1.5041594242225E+00 -1.9279361943017E-01
63  6.2000000000000E-01  1.5099895421220E+00 -2.2357861537032E-01
64  6.3000000000000E-01  1.5132631072387E+00 -2.5062408255179E-01
65  6.4000000000000E-01  1.5138778529531E+00 -2.7314207472830E-01
66  6.5000000000000E-01  1.5117482369633E+00 -2.9040647372180E-01
67  6.6000000000000E-01  1.5068070903690E+00 -3.0176536666432E-01
68  6.7000000000000E-01  1.4990070173598E+00 -3.0665215816269E-01
69  6.8000000000000E-01  1.4883215192227E+00 -3.0459522647646E-01
70  6.9000000000000E-01  1.4747458211626E+00 -2.9522595900574E-01
71  7.0000000000000E-01  1.4582973856190E+00 -2.7828503149940E-01
72  7.1000000000000E-01  1.4390161012566E+00 -2.5362682686970E-01
73  7.2000000000000E-01  1.4169641425147E+00 -2.2122192277645E-01
74  7.3000000000000E-01  1.3922255004065E+00 -1.8115761160357E-01
75  7.4000000000000E-01  1.3649051910677E+00 -1.3363645147345E-01
76  7.5000000000000E-01  1.3351281542480E+00 -7.8972881889294E-02
77  7.6000000000000E-01  1.3030378594172E+00 -1.7587971826392E-02
78  7.7000000000000E-01  1.2687946423237E+00  4.9997599008897E-02
79  7.8000000000000E-01  1.2325737995907E+00  1.2317219406531E-01
80  7.9000000000000E-01  1.1945634731842E+00  2.0124334881171E-01
81  8.0000000000000E-01  1.1549623602598E+00  2.8344918893636E-01
82  8.1000000000000E-01  1.1139772869146E+00  3.6897093021348E-01
83  8.2000000000000E-01  1.0718206866933E+00  4.5694623419536E-01
84  8.3000000000000E-01  1.0287080262679E+00  5.4648317987942E-01
85  8.4000000000000E-01  9.8485522151442E-01  6.3667460189853E-01
86  8.5000000000000E-01  9.4047608721548E-01  7.2661254074551E-01
87  8.6000000000000E-01  8.9577986284620E-01  8.1540255014753E-01
88  8.7000000000000E-01  8.5096885534731E-01  9.0217761093454E-01
89  8.8000000000000E-01  8.0623623750035E-01  9.8611140950591E-01
90  8.9000000000000E-01  7.6176403752876E-01  1.0664307521035E+00
91  9.0000000000000E-01  7.1772135191798E-01  1.1424269032913E+00
92  9.1000000000000E-01  6.7426280924352E-01  1.2134656579812E+00
93  9.2000000000000E-01  6.3152730810037E-01  1.2789959806272E+00
94  9.3000000000000E-01  5.8963704712587E-01  1.3385570723802E+00
95  9.4000000000000E-01  5.4869685970059E-01  1.3917837565202E+00
96  9.5000000000000E-01  5.0879386029677E-01  1.4384101038289E+00
97  9.6000000000000E-01  4.6999740372754E-01  1.4782712521277E+00
98  9.7000000000000E-01  4.3235935284006E-01  1.5113034073864E+00
99  9.8000000000000E-01  3.9591464459610E-01  1.5375420470009E+00
100  9.9000000000000E-01  3.6068213909801E-01  1.5571183784227E+00
101  1.0000000000000E+00  3.2666573104727E-01  1.5702541377250E+00
102  1.0100000000000E+00  2.9385569845757E-01  1.5772548423132E+00
103  1.0200000000000E+00  2.6223025926727E-01  1.5785016393573E+00
104  1.0300000000000E+00  2.3175730288432E-01  1.5744419161047E+00
105  1.0400000000000E+00  2.0239626071310E-01  1.5655788596282E+00
106  1.0500000000000E+00  1.7410007740332E-01  1.5524601714262E+00
107  1.0600000000000E+00  1.4681724297119E-01  1.5356661563010E+00
108  1.0700000000000E+00  1.2049384508910E-01  1.5157974148937E+00
109  1.0800000000000E+00  9.5075600736797E-02  1.4934623750234E+00
110  1.0900000000000E+00  7.0509827046850E-02  1.4692648984759E+00
111  1.1000000000000E+00  4.6747312543138E-02  1.4437921971568E+00
112  1.1100000000000E+00  2.3744052032651E-02  1.4176032856354E+00
113  1.1200000000000E+00  1.4628111175952E-03  1.3912181862639E+00
114  1.1300000000000E+00 -2.0125510394991E-02  1.3651080884301E+00
115  1.1400000000000E+00 -4.1040743085024E-02  1.3396866455032E+00
116  1.1500000000000E+00 -6.1292563113985E-02  1.3153025718470E+00
117  1.1600000000000E+00 -8.0879875977293E-02  1.2922336785237E+00
118  1.1700000000000E+00 -9.9790481812889E-02  1.2706824601814E+00
119  1.1800000000000E+00 -1.1800103013348E-01  1.2507733178178E+00
120  1.1900000000000E+00 -1.3547726660102E-01  1.2325514729380E+00
121  1.2000000000000E+00 -1.5217456919924E-01  1.2159835986275E+00
122  1.2100000000000E+00 -1.6803876598870E-01  1.2009601628415E+00
123  1.2200000000000E+00 -1.8300722158086E-01  1.1872994489093E+00
124  1.2300000000000E+00 -1.9701017469913E-01  1.1747531888038E+00
125  1.2400000000000E+00 -2.0997230468940E-01  1.1630137159952E+00
126  1.2500000000000E+00 -2.2181450072480E-01  1.1517225174608E+00
127  1.2600000000000E+00 -2.3245580374901E-01  1.1404800388616E+00
128  1.2700000000000E+00 -2.4181548792892E-01  1.1288565730517E+00
129  1.2800000000000E+00 -2.4981524561787E-01  1.1164040405193E+00
130  1.2900000000000E+00 -2.5638143753577E-01  1.1026684509136E+00
131  1.3000000000000E+00 -2.6144736805984E-01  1.0872028175462E+00
132  1.3100000000000E+00 -2.6495554418828E-01  1.0695802817979E+00
133  1.3200000000000E+00 -2.6685987584264E-01  1.0494071914952E+00
134  1.3300000000000E+00 -2.6712777467446E-01  1.0263358662897E+00