Tb    ONCVPSP-4.0.1  r_core=   2.00838   1.60001   1.90311   1.50710
65.0000     19.0000      250626    zatom,zion,pspd
8      11   3     4   600     0    pspcod,pspxc,lmax,lloc,mmax,r2well
5.99000000 39.00000000  0.00000000    rchrg fchrg qchrg
2     2     2     2     0    nproj
1     1           extension_switch
0                         9.4965296535571E+00  3.3433510156162E-01
1  0.0000000000000E+00  4.0702663461900E-11 -1.8900238318853E-10
2  1.0000000000000E-02  4.9293973988882E-02 -1.5267367679168E-02
3  2.0000000000000E-02  9.8539986473611E-02 -3.0532466370282E-02
4  3.0000000000000E-02  1.4769001242312E-01 -4.5792552655628E-02
5  4.0000000000000E-02  1.9669590098362E-01 -6.1043939694508E-02
6  5.0000000000000E-02  2.4550931563456E-01 -7.6281539054558E-02
7  6.0000000000000E-02  2.9408167799660E-01 -9.1498418660094E-02
8  7.0000000000000E-02  3.4236411646089E-01 -1.0668538200732E-01
9  8.0000000000000E-02  3.9030742076831E-01 -1.2183057360723E-01
10  9.0000000000000E-02  4.3786200361730E-01 -1.3691911538430E-01
11  1.0000000000000E-01  4.8497787031887E-01 -1.5193277848307E-01
12  1.1000000000000E-01  5.3160459744952E-01 -1.6684969461850E-01
13  1.2000000000000E-01  5.7769132137538E-01 -1.8164411075151E-01
14  1.3000000000000E-01  6.2318673743685E-01 -1.9628619048172E-01
15  1.4000000000000E-01  6.6803911049065E-01 -2.1074186512687E-01
16  1.5000000000000E-01  7.1219629740806E-01 -2.2497273700776E-01
17  1.6000000000000E-01  7.5560578202351E-01 -2.3893603698057E-01
18  1.7000000000000E-01  7.9821472291844E-01 -2.5258463776031E-01
19  1.8000000000000E-01  8.3997001431117E-01 -2.6586712406275E-01
20  1.9000000000000E-01  8.8081836020656E-01 -2.7872792006227E-01
21  2.0000000000000E-01  9.2070636183862E-01 -2.9110747412337E-01
22  2.1000000000000E-01  9.5958061831779E-01 -3.0294250021918E-01
23  2.2000000000000E-01  9.9738784027144E-01 -3.1416627490454E-01
24  2.3000000000000E-01  1.0340749761434E+00 -3.2470898816936E-01
25  2.4000000000000E-01  1.0695893506967E+00 -3.3449814596463E-01
26  2.5000000000000E-01  1.1038788151423E+00 -3.4345902167187E-01
27  2.6000000000000E-01  1.1368919082014E+00 -3.5151515328304E-01
28  2.7000000000000E-01  1.1685780272924E+00 -3.5858888257482E-01
29  2.8000000000000E-01  1.1988876089264E+00 -3.6460193210419E-01
30  2.9000000000000E-01  1.2277723172904E+00 -3.6947601542393E-01
31  3.0000000000000E-01  1.2551852398982E+00 -3.7313347552286E-01
32  3.1000000000000E-01  1.2810810891014E+00 -3.7549794613787E-01
33  3.2000000000000E-01  1.3054164081665E+00 -3.7649503026827E-01
34  3.3000000000000E-01  1.3281497805513E+00 -3.7605298994997E-01
35  3.4000000000000E-01  1.3492420409485E+00 -3.7410344112054E-01
36  3.5000000000000E-01  1.3686564866067E+00 -3.7058204722849E-01
37  3.6000000000000E-01  1.3863590873970E+00 -3.6542920511487E-01
38  3.7000000000000E-01  1.4023186930542E+00 -3.5859071662180E-01
39  3.8000000000000E-01  1.4165072360032E+00 -3.5001843936566E-01
40  3.9000000000000E-01  1.4288999281642E+00 -3.3967091014904E-01
41  4.0000000000000E-01  1.4394754501342E+00 -3.2751393458205E-01
42  4.1000000000000E-01  1.4482161311517E+00 -3.1352113663350E-01
43  4.2000000000000E-01  1.4551081182767E+00 -2.9767446204079E-01
44  4.3000000000000E-01  1.4601415332537E+00 -2.7996462977229E-01
45  4.4000000000000E-01  1.4633106155735E+00 -2.6039152605478E-01
46  4.5000000000000E-01  1.4646138503114E+00 -2.3896453585155E-01
47  4.6000000000000E-01  1.4640540793884E+00 -2.1570280710236E-01
48  4.7000000000000E-01  1.4616385949894E+00 -1.9063544350963E-01
49  4.8000000000000E-01  1.4573792139630E+00 -1.6380162217814E-01
50  4.9000000000000E-01  1.4512923321363E+00 -1.3525063297845E-01
51  5.0000000000000E-01  1.4433989575915E+00 -1.0504183711104E-01
52  5.1000000000000E-01  1.4337247220750E+00 -7.3244542987663E-02
53  5.2000000000000E-01  1.4222998698467E+00 -3.9937798221111E-02
54  5.3000000000000E-01  1.4091592234149E+00 -5.2100972136009E-03
55  5.4000000000000E-01  1.3943421257535E+00  3.0840995441849E-02
56  5.5000000000000E-01  1.3778923587523E+00  6.8109304793487E-02
57  5.6000000000000E-01  1.3598580378112E+00  1.0648058689054E-01
58  5.7000000000000E-01  1.3402914826549E+00  1.4583314920643E-01
59  5.8000000000000E-01  1.3192490646100E+00  1.8603854690363E-01
60  5.9000000000000E-01  1.2967910307604E+00  2.2696235096523E-01
61  6.0000000000000E-01  1.2729813055617E+00  2.6846498347834E-01
62  6.1000000000000E-01  1.2478872706733E+00  3.1040261463059E-01
63  6.2000000000000E-01  1.2215795239274E+00  3.5262811528449E-01
64  6.3000000000000E-01  1.1941316185291E+00  3.9499205832479E-01
65  6.4000000000000E-01  1.1656197837374E+00  4.3734376134478E-01
66  6.5000000000000E-01  1.1361226284372E+00  4.7953236264741E-01
67  6.6000000000000E-01  1.1057208291640E+00  5.2140792199933E-01
68  6.7000000000000E-01  1.0744968042833E+00  5.6282253708996E-01
69  6.8000000000000E-01  1.0425343761638E+00  6.0363146622361E-01
70  6.9000000000000E-01  1.0099184233066E+00  6.4369424741274E-01
71  7.0000000000000E-01  9.7673452450475E-01  6.8287580375231E-01
72  7.1000000000000E-01  9.4306859721070E-01  7.2104752474125E-01
73  7.2000000000000E-01  9.0900653237442E-01  7.5808831308251E-01
74  7.3000000000000E-01  8.7463382808937E-01  7.9388558644310E-01
75  7.4000000000000E-01  8.4003522444130E-01  8.2833622369087E-01
76  7.5000000000000E-01  8.0529434199635E-01  8.6134744525107E-01
77  7.6000000000000E-01  7.7049332639036E-01  8.9283761744368E-01
78  7.7000000000000E-01  7.3571250148854E-01  9.2273697097513E-01
79  7.8000000000000E-01  7.0103003357393E-01  9.5098822416540E-01
80  7.9000000000000E-01  6.6652160899412E-01  9.7754710199669E-01
81  8.0000000000000E-01  6.3226012764689E-01  1.0023827426704E+00
82  8.1000000000000E-01  5.9831541461836E-01  1.0254779840559E+00
83  8.2000000000000E-01  5.6475395219981E-01  1.0468295232075E+00
84  8.3000000000000E-01  5.3163863440315E-01  1.0664479430100E+00
85  8.4000000000000E-01  4.9902854596879E-01  1.0843576009922E+00
86  8.5000000000000E-01  4.6697876771474E-01  1.1005963764071E+00
87  8.6000000000000E-01  4.3554020991178E-01  1.1152152728303E+00
88  8.7000000000000E-01  4.0475947518704E-01  1.1282778747525E+00
89  8.8000000000000E-01  3.7467875225846E-01  1.1398596579430E+00
90  8.9000000000000E-01  3.4533574158504E-01  1.1500471547333E+00
91  9.0000000000000E-01  3.1676361378484E-01  1.1589369767992E+00
92  9.1000000000000E-01  2.8899100142406E-01  1.1666346995055E+00
93  9.2000000000000E-01  2.6204202451791E-01  1.1732536134098E+00
94  9.3000000000000E-01  2.3593634980932E-01  1.1789133500909E+00
95  9.4000000000000E-01  2.1068928360470E-01  1.1837383910635E+00
96  9.5000000000000E-01  1.8631189765026E-01  1.1878564701563E+00
97  9.6000000000000E-01  1.6281118722850E-01  1.1913968813489E+00
98  9.7000000000000E-01  1.4019026034421E-01  1.1944887056824E+00
99  9.8000000000000E-01  1.1844855655561E-01  1.1972589724517E+00
100  9.9000000000000E-01  9.7582093690131E-02  1.1998307714565E+00
101  1.0000000000000E+00  7.7583740368552E-02  1.2023213346076E+00
102  1.0100000000000E+00  5.8443511948792E-02  1.2048401066450E+00
103  1.0200000000000E+00  4.0148887192745E-02  1.2074868261090E+00
104  1.0300000000000E+00  2.2685142660335E-02  1.2103496389957E+00
105  1.0400000000000E+00  6.0357015462974E-03  1.2135032687080E+00
106  1.0500000000000E+00 -9.8175065993865E-03  1.2170072669635E+00
107  1.0600000000000E+00 -2.4893679084506E-02  1.2209043712247E+00
108  1.0700000000000E+00 -3.9212770275175E-02  1.2252189949435E+00
109  1.0800000000000E+00 -5.2795123052294E-02  1.2299558774567E+00
110  1.0900000000000E+00 -6.5661105978410E-02  1.2350989206918E+00
111  1.1000000000000E+00 -7.7830760785240E-02  1.2406102399273E+00
112  1.1100000000000E+00 -8.9323464912640E-02  1.2464294556747E+00
113  1.1200000000000E+00 -1.0015761391159E-01  1.2524732532764E+00
114  1.1300000000000E+00 -1.1035032856222E-01  1.2586352360204E+00
115  1.1400000000000E+00 -1.1991719154876E-01  1.2647860964322E+00
116  1.1500000000000E+00 -1.2887201847212E-01  1.2707741288708E+00
117  1.1600000000000E+00 -1.3722666786226E-01  1.2764261046194E+00
118  1.1700000000000E+00 -1.4499089467209E-01  1.2815485282521E+00
119  1.1800000000000E+00 -1.5217225148671E-01  1.2859292911755E+00
120  1.1900000000000E+00 -1.5877604136135E-01  1.2893397348172E+00
121  1.2000000000000E+00 -1.6480532580115E-01  1.2915371319297E+00
122  1.2100000000000E+00 -1.7026099091357E-01  1.2922675898716E+00
123  1.2200000000000E+00 -1.7514187418602E-01  1.2912693744146E+00
124  1.2300000000000E+00 -1.7944495367215E-01  1.2882766466425E+00
125  1.2400000000000E+00 -1.8316560058969E-01  1.2830235987016E+00
126  1.2500000000000E+00 -1.8629789544295E-01  1.2752489665401E+00
127  1.2600000000000E+00 -1.8883500677728E-01  1.2647008892936E+00
128  1.2700000000000E+00 -1.9076963052981E-01  1.2511420754570E+00
129  1.2800000000000E+00 -1.9209448666932E-01  1.2343552255064E+00
130  1.2900000000000E+00 -1.9280286840101E-01  1.2141486490557E+00
131  1.3000000000000E+00 -1.9288923763142E-01  1.1903620018133E+00
132  1.3100000000000E+00 -1.9234985864959E-01  1.1628720535724E+00
133  1.3200000000000E+00 -1.9118346007177E-01  1.1315983831543E+00
134  1.3300000000000E+00 -1.8939191298228E-01  1.0965088793055E+00
135  1.3400000000000E+00 -1.8698091090736E-01  1.0576249082613E+00
136  1.3500000000000E+00 -1.8396063474415E-01  1.0150259886883E+00
137  1.3600000000000E+00 -1.8034638303050E-01  9.6885379301305E-01
138  1.3700000000000E+00 -1.7615914495770E-01  9.1931527050803E-01
139  1.3800000000000E+00 -1.7142609030288E-01  8.6668466199333E-01
140  1.3900000000000E+00 -1.6618094695457E-01  8.1130414832191E-01
141  1.4000000000000E+00 -1.6046423292970E-01  7.5358284500470E-01
142  1.4100000000000E+00 -1.5432330567672E-01  6.9399382293973E-01
143  1.4200000000000E+00 -1.4781218706540E-01  6.3306880053864E-01
144  1.4300000000000E+00 -1.4099111770868E-01  5.7139011503667E-01
145  1.4400000000000E+00 -1.3392578915416E-01  5.0957954048418E-01
146  1.4500000000000E+00 -1.2668619700637E-01  4.4828347673591E-01
147  1.4600000000000E+00 -1.1934505212581E-01  3.8815398710653E-01
148  1.4700000000000E+00 -1.1197568075133E-01  3.2982511268925E-01
149  1.4800000000000E+00 -1.0464933761439E-01  2.7388383788928E-01
150  1.4900000000000E+00 -9.7431845828317E-02  2.2083499000214E-01
151  1.5000000000000E+00 -9.0379517776969E-02  1.7105985108097E-01
152  1.5100000000000E+00 -8.3533998777958E-02  1.2476465190917E-01
153  1.5200000000000E+00 -7.6919596844588E-02  8.1960771269261E-02
154  1.5300000000000E+00 -7.0551631421682E-02  4.2571726623949E-02
155  1.5400000000000E+00 -6.4443176607906E-02  6.5141961799919E-03
156  1.5500000000000E+00 -5.8605090729319E-02 -2.6301970858389E-02
157  1.5600000000000E+00 -5.3046142380203E-02 -5.5972601769264E-02
158  1.5700000000000E+00 -4.7773081404704E-02 -8.2598778620641E-02
159  1.5800000000000E+00 -4.2790713363523E-02 -1.0628642463890E-01
160  1.5900000000000E+00 -3.8101979874319E-02 -1.2714587025176E-01
161  1.6000000000000E+00 -3.3708042938567E-02 -1.4529141810688E-01
162  1.6100000000000E+00 -2.9608372931760E-02 -1.6084090771178E-01
163  1.6200000000000E+00 -2.5800839917149E-02 -1.7391528048021E-01
164  1.6300000000000E+00 -2.2281807901869E-02 -1.8463814634843E-01
165  1.6400000000000E+00 -1.9046231727375E-02 -1.9313535235046E-01
166  1.6500000000000E+00 -1.6087757158630E-02 -1.9953454444428E-01
167  1.6600000000000E+00 -1.3398820287129E-02 -2.0396476007063E-01
168  1.6700000000000E+00 -1.0970752586223E-02 -2.0655598279895E-01
169  1.6800000000000E+00 -8.7938840093391E-03 -2.0743873515678E-01
170  1.6900000000000E+00 -6.8576486456605E-03 -2.0674365995590E-01
171  1.7000000000000E+00 -5.1506907151794E-03 -2.0460111029019E-01
172  1.7100000000000E+00 -3.6609709680053E-03 -2.0114074470785E-01
173  1.7200000000000E+00 -2.3758731328927E-03 -1.9649112845034E-01
174  1.7300000000000E+00 -1.2823101113492E-03 -1.9077934115434E-01
175  1.7400000000000E+00 -3.6682959038766E-04 -1.8413059168473E-01
176  1.7500000000000E+00  3.8428124857463E-04 -1.7666784076173E-01
177  1.7600000000000E+00  9.8489221187483E-04 -1.6851143175047E-01
178  1.7700000000000E+00  1.4489281020757E-03 -1.5977873050447E-01
179  1.7800000000000E+00  1.7902685310034E-03 -1.5058377465913E-01
180  1.7900000000000E+00  2.0226498644825E-03 -1.4103693330709E-01
181  1.8000000000000E+00  2.1595695705084E-03 -1.3124457752287E-01
182  1.8100000000000E+00  2.2141932666336E-03 -1.2130876250910E-01
183  1.8200000000000E+00  2.1992647588628E-03 -1.1132692217757E-01
184  1.8300000000000E+00  2.1270193377087E-03 -1.0139157680646E-01
185  1.8400000000000E+00  2.0091005909793E-03 -9.1590054444392E-02
186  1.8500000000000E+00  1.8564810075920E-03 -8.2004226955809E-02
187  1.8600000000000E+00  1.6793866276599E-03 -7.2710261509420E-02
188  1.8700000000000E+00  1.4872263168934E-03 -6.3778390282670E-02
189  1.8800000000000E+00  1.2885233749609E-03 -5.5272682707706E-02
190  1.8900000000000E+00  1.0908517865992E-03 -4.7250836269194E-02
191  1.9000000000000E+00  9.0080843176476E-04 -3.9764182315667E-02
192  1.9100000000000E+00  7.2363892715927E-04 -3.2855370529819E-02
193  1.9200000000000E+00  5.6113693949415E-04 -2.6543991006094E-02
194  1.9300000000000E+00  4.1577848273737E-04 -2.0854936166516E-02
195  1.9400000000000E+00  2.9139938907022E-04 -1.5823440827140E-02
196  1.9500000000000E+00  1.9002599782173E-04 -1.1473735769534E-02
197  1.9600000000000E+00  1.1231356579328E-04 -7.8220493691108E-03
198  1.9700000000000E+00  5.7466539829513E-05 -4.8761174597676E-03
199  1.9800000000000E+00  2.3225768177948E-05 -2.6361474953767E-03
200  1.9900000000000E+00  5.9320613639535E-06 -1.0840315894173E-03
201  2.0000000000000E+00  3.4674860411949E-07 -2.3686235318764E-04
202  2.0100000000000E+00  2.1610994142828E-08  1.3617501381268E-05
203  2.0200000000000E+00  6.3775474223035E-09  1.6166558647353E-06
204  2.03 -0. -0.
205  2.04 -0.  0.
206  2.05 -0. -0.
207  2.06  0.  0.
208  2.07  0.  0.
209  2.08  0.  0.
210  2.09  0.  0.
211  2.10  0.  0.
212  2.11  0.  0.
213  2.12  0.  0.
214  2.13  0.  0.
215  2.14  0.  0.
216  2.15  0.  0.
217  2.16  0.  0.
218  2.17  0.  0.
219  2.18  0.  0.
220  2.19  0.  0.
221  2.20  0.  0.
222  2.21  0.  0.
223  2.22  0.  0.
224  2.23  0.  0.
225  2.24  0.  0.
226  2.25  0.  0.
227  2.26  0.  0.
228  2.27  0.  0.
229  2.28  0.  0.
230  2.29  0.  0.
231  2.30  0.  0.
232  2.31  0.  0.
233  2.32  0.  0.
234  2.33  0.  0.
235  2.34  0.  0.
236  2.35  0.  0.
237  2.36  0.  0.
238  2.37  0.  0.
239  2.38  0.  0.
240  2.39  0.  0.
241  2.40  0.  0.
242  2.41  0.  0.
243  2.42  0.  0.
244  2.43  0.  0.
245  2.44  0.  0.
246  2.45  0.  0.
247  2.46  0.  0.
248  2.47  0.  0.
249  2.48  0.  0.
250  2.49  0.  0.
251  2.50  0.  0.
252  2.51  0.  0.
253  2.52  0.  0.
254  2.53  0.  0.
255  2.54  0.  0.
256  2.55  0.  0.
257  2.56  0.  0.
258  2.57  0.  0.
259  2.58  0.  0.
260  2.59  0.  0.
261  2.60  0.  0.
262  2.61  0.  0.
263  2.62  0.  0.
264  2.63  0.  0.
265  2.64  0.  0.
266  2.65  0.  0.
267  2.66  0.  0.
268  2.67  0.  0.
269  2.68  0.  0.
270  2.69  0.  0.
271  2.70  0.  0.
272  2.71  0.  0.
273  2.72  0.  0.
274  2.73  0.  0.
275  2.74  0.  0.
276  2.75  0.  0.
277  2.76  0.  0.
278  2.77  0.  0.
279  2.78  0.  0.
280  2.79  0.  0.
281  2.80  0.  0.
282  2.81  0.  0.
283  2.82  0.  0.
284  2.83  0.  0.
285  2.84  0.  0.
286  2.85  0.  0.
287  2.86  0.  0.
288  2.87  0.  0.
289  2.88  0.  0.
290  2.89  0.  0.
291  2.90  0.  0.
292  2.91  0.  0.
293  2.92  0.  0.
294  2.93  0.  0.
295  2.94  0.  0.
296  2.95  0.  0.
297  2.96  0.  0.
298  2.97  0.  0.
299  2.98  0.  0.
300  2.99  0.  0.
301  3.00  0.  0.
302  3.01  0.  0.
303  3.02  0.  0.
304  3.03  0.  0.
305  3.04  0.  0.
306  3.05  0.  0.
307  3.06  0.  0.
308  3.07  0.  0.
309  3.08  0.  0.
310  3.09  0.  0.
311  3.10  0.  0.
312  3.11  0.  0.
313  3.12  0.  0.
314  3.13  0.  0.
315  3.14  0.  0.
316  3.15  0.  0.
317  3.16  0.  0.
318  3.17  0.  0.
319  3.18  0.  0.
320  3.19  0.  0.
321  3.20  0.  0.
322  3.21  0.  0.
323  3.22  0.  0.
324  3.23  0.  0.
325  3.24  0.  0.
326  3.25  0.  0.
327  3.26  0.  0.
328  3.27  0.  0.
329  3.28  0.  0.
330  3.29  0.  0.
331  3.30  0.  0.
332  3.31  0.  0.
333  3.32  0.  0.
334  3.33  0.  0.
335  3.34  0.  0.
336  3.35  0.  0.
337  3.36  0.  0.
338  3.37  0.  0.
339  3.38  0.  0.
340  3.39  0.  0.
341  3.40  0.  0.
342  3.41  0.  0.
343  3.42  0.  0.
344  3.43  0.  0.
345  3.44  0.  0.
346  3.45  0.  0.
347  3.46  0.  0.
348  3.47  0.  0.
349  3.48  0.  0.
350  3.49  0.  0.
351  3.50  0.  0.
352  3.51  0.  0.
353  3.52  0.  0.
354  3.53  0.  0.
355  3.54  0.  0.
356  3.55  0.  0.
357  3.56  0.  0.
358  3.57  0.  0.
359  3.58  0.  0.
360  3.59  0.  0.
361  3.60  0.  0.
362  3.61  0.  0.
363  3.62  0.  0.
364  3.63  0.  0.
365  3.64  0.  0.
366  3.65  0.  0.
367  3.66  0.  0.
368  3.67  0.  0.
369  3.68  0.  0.
370  3.69  0.  0.
371  3.70  0.  0.
372  3.71  0.  0.
373  3.72  0.  0.
374  3.73  0.  0.
375  3.74  0.  0.
376  3.75  0.  0.
377  3.76  0.  0.
378  3.77  0.  0.
379  3.78  0.  0.
380  3.79  0.  0.
381  3.80  0.  0.
382  3.81  0.  0.
383  3.82  0.  0.
384  3.83  0.  0.
385  3.84  0.  0.
386  3.85  0.  0.
387  3.86  0.  0.
388  3.87  0.  0.
389  3.88  0.  0.
390  3.89  0.  0.
391  3.90  0.  0.
392  3.91  0.  0.
393  3.92  0.  0.
394  3.93  0.  0.
395  3.94  0.  0.
396  3.95  0.  0.
397  3.96  0.  0.
398  3.97  0.  0.
399  3.98  0.  0.
400  3.99  0.  0.
401  4.00  0.  0.
402  4.01  0.  0.
403  4.02  0.  0.
404  4.03  0.  0.
405  4.04  0.  0.
406  4.05  0.  0.
407  4.06  0.  0.
408  4.07  0.  0.
409  4.08  0.  0.
410  4.09  0.  0.
411  4.10  0.  0.
412  4.11  0.  0.
413  4.12  0.  0.
414  4.13  0.  0.
415  4.14  0.  0.
416  4.15  0.  0.
417  4.16  0.  0.
418  4.17  0.  0.
419  4.18  0.  0.
420  4.19  0.  0.
421  4.20  0.  0.
422  4.21  0.  0.
423  4.22  0.  0.
424  4.23  0.  0.
425  4.24  0.  0.
426  4.25  0.  0.
427  4.26  0.  0.
428  4.27  0.  0.
429  4.28  0.  0.
430  4.29  0.  0.
431  4.30  0.  0.
432  4.31  0.  0.
433  4.32  0.  0.
434  4.33  0.  0.
435  4.34  0.  0.
436  4.35  0.  0.
437  4.36  0.  0.
438  4.37  0.  0.
439  4.38  0.  0.
440  4.39  0.  0.
441  4.40  0.  0.
442  4.41  0.  0.
443  4.42  0.  0.
444  4.43  0.  0.
445  4.44  0.  0.
446  4.45  0.  0.
447  4.46  0.  0.
448  4.47  0.  0.
449  4.48  0.  0.
450  4.49  0.  0.
451  4.50  0.  0.
452  4.51  0.  0.
453  4.52  0.  0.
454  4.53  0.  0.
455  4.54  0.  0.
456  4.55  0.  0.
457  4.56  0.  0.
458  4.57  0.  0.
459  4.58  0.  0.
460  4.59  0.  0.
461  4.60  0.  0.
462  4.61  0.  0.
463  4.62  0.  0.
464  4.63  0.  0.
465  4.64  0.  0.
466  4.65  0.  0.
467  4.66  0.  0.
468  4.67  0.  0.
469  4.68  0.  0.
470  4.69  0.  0.
471  4.70  0.  0.
472  4.71  0.  0.
473  4.72  0.  0.
474  4.73  0.  0.
475  4.74  0.  0.
476  4.75  0.  0.
477  4.76  0.  0.
478  4.77  0.  0.
479  4.78  0.  0.
480  4.79  0.  0.
481  4.80  0.  0.
482  4.81  0.  0.
483  4.82  0.  0.
484  4.83  0.  0.
485  4.84  0.  0.
486  4.85  0.  0.
487  4.86  0.  0.
488  4.87  0.  0.
489  4.88  0.  0.
490  4.89  0.  0.
491  4.90  0.  0.
492  4.91  0.  0.
493  4.92  0.  0.
494  4.93  0.  0.
495  4.94  0.  0.
496  4.95  0.  0.
497  4.96  0.  0.
498  4.97  0.  0.
499  4.98  0.  0.
500  4.99  0.  0.
501  5.00  0.  0.
502  5.01  0.  0.
503  5.02  0.  0.
504  5.03  0.  0.
505  5.04  0.  0.
506  5.05  0.  0.
507  5.06  0.  0.
508  5.07  0.  0.
509  5.08  0.  0.
510  5.09  0.  0.
511  5.10  0.  0.
512  5.11  0.  0.
513  5.12  0.  0.
514  5.13  0.  0.
515  5.14  0.  0.
516  5.15  0.  0.
517  5.16  0.  0.
518  5.17  0.  0.
519  5.18  0.  0.
520  5.19  0.  0.
521  5.20  0.  0.
522  5.21  0.  0.
523  5.22  0.  0.
524  5.23  0.  0.
525  5.24  0.  0.
526  5.25  0.  0.
527  5.26  0.  0.
528  5.27  0.  0.
529  5.28  0.  0.
530  5.29  0.  0.
531  5.30  0.  0.
532  5.31  0.  0.
533  5.32  0.  0.
534  5.33  0.  0.
535  5.34  0.  0.
536  5.35  0.  0.
537  5.36  0.  0.
538  5.37  0.  0.
539  5.38  0.  0.
540  5.39  0.  0.
541  5.40  0.  0.
542  5.41  0.  0.
543  5.42  0.  0.
544  5.43  0.  0.
545  5.44  0.  0.
546  5.45  0.  0.
547  5.46  0.  0.
548  5.47  0.  0.
549  5.48  0.  0.
550  5.49  0.  0.
551  5.50  0.  0.
552  5.51  0.  0.
553  5.52  0.  0.
554  5.53  0.  0.
555  5.54  0.  0.
556  5.55  0.  0.
557  5.56  0.  0.
558  5.57  0.  0.
559  5.58  0.  0.
560  5.59  0.  0.
561  5.60  0.  0.
562  5.61  0.  0.
563  5.62  0.  0.
564  5.63  0.  0.
565  5.64  0.  0.
566  5.65  0.  0.
567  5.66  0.  0.
568  5.67  0.  0.
569  5.68  0.  0.
570  5.69  0.  0.
571  5.70  0.  0.
572  5.71  0.  0.
573  5.72  0.  0.
574  5.73  0.  0.
575  5.74  0.  0.
576  5.75  0.  0.
577  5.76  0.  0.
578  5.77  0.  0.
579  5.78  0.  0.
580  5.79  0.  0.
581  5.80  0.  0.
582  5.81  0.  0.
583  5.82  0.  0.
584  5.83  0.  0.
585  5.84  0.  0.
586  5.85  0.  0.
587  5.86  0.  0.
588  5.87  0.  0.
589  5.88  0.  0.
590  5.89  0.  0.
591  5.90  0.  0.
592  5.91  0.  0.
593  5.92  0.  0.
594  5.93  0.  0.
595  5.94  0.  0.
596  5.95  0.  0.
597  5.96  0.  0.
598  5.97  0.  0.
599  5.98  0.  0.
600  5.99  0.  0.
1                         6.2969742465814E+00  2.3838942972210E-01
1  0.0000000000000E+00  3.0352838298331E-10 -3.3698083906630E-09
2  1.0000000000000E-02  1.1021759729067E-03  1.1281846380214E-03
3  2.0000000000000E-02  4.4053712024278E-03  4.5085553306913E-03
4  3.0000000000000E-02  9.8996023480106E-03  1.0128507156133E-02
5  4.0000000000000E-02  1.7568279418674E-02  1.7966849770280E-02
6  5.0000000000000E-02  2.7388278510672E-02  2.7993541330130E-02
7  6.0000000000000E-02  3.9330042398839E-02  4.0169330086614E-02
8  7.0000000000000E-02  5.3357707770467E-02  5.4445317357995E-02
9  8.0000000000000E-02  6.9429257587002E-02  7.0762458964514E-02
10  9.0000000000000E-02  8.7496696785982E-02  8.9051025179430E-02
11  1.0000000000000E-01  1.0750624929895E-01  1.0923004175946E-01
12  1.1000000000000E-01  1.2939857416521E-01  1.3120673659845E-01
13  1.2000000000000E-01  1.5310899837057E-01  1.5487601794923E-01
14  1.3000000000000E-01  1.7856776393674E-01  1.8012001094316E-01
15  1.4000000000000E-01  2.0570028673425E-01  2.0680767927814E-01
16  1.5000000000000E-01  2.3442742448875E-01  2.3479455843047E-01
17  1.6000000000000E-01  2.6466575149904E-01  2.6392262557662E-01
18  1.7000000000000E-01  2.9632783768249E-01  2.9402032960057E-01
19  1.8000000000000E-01  3.2932252970847E-01  3.2490280214133E-01
20  1.9000000000000E-01  3.6355523216903E-01  3.5637226764296E-01
21  2.0000000000000E-01  3.9892818696472E-01  3.8821866686185E-01
22  2.1000000000000E-01  4.3534074934635E-01  4.2022050432642E-01
23  2.2000000000000E-01  4.7268965934563E-01  4.5214592590989E-01
24  2.3000000000000E-01  5.1086930764179E-01  4.8375402805033E-01
25  2.4000000000000E-01  5.4977199524041E-01  5.1479639532602E-01
26  2.5000000000000E-01  5.8928818667803E-01  5.4501885816422E-01
27  2.6000000000000E-01  6.2930675680296E-01  5.7416345752903E-01
28  2.7000000000000E-01  6.6971523151159E-01  6.0197059860005E-01
29  2.8000000000000E-01  7.1040002313343E-01  6.2818137082023E-01
30  2.9000000000000E-01  7.5124666144780E-01  6.5254000735729E-01
31  3.0000000000000E-01  7.9214002157527E-01  6.7479645308308E-01
32  3.1000000000000E-01  8.3296455020964E-01  6.9470900671762E-01
33  3.2000000000000E-01  8.7360449183585E-01  7.1204699988947E-01
34  3.3000000000000E-01  9.1394411671097E-01  7.2659347360092E-01
35  3.4000000000000E-01  9.5386795246436E-01  7.3814781101626E-01
36  3.5000000000000E-01  9.9326102119633E-01  7.4652828465735E-01
37  3.6000000000000E-01  1.0320090839204E+00  7.5157447602847E-01
38  3.7000000000000E-01  1.0699988941005E+00  7.5314952641715E-01
39  3.8000000000000E-01  1.1071184618832E+00  7.5114217913478E-01
40  3.9000000000000E-01  1.1432573304152E+00  7.4546857575633E-01
41  4.0000000000000E-01  1.1783068653730E+00  7.3607377196390E-01
42  4.1000000000000E-01  1.2121605585185E+00  7.2293294235428E-01
43  4.2000000000000E-01  1.2447143457328E+00  7.0605224797559E-01
44  4.3000000000000E-01  1.2758669395839E+00  6.8546934534375E-01
45  4.4000000000000E-01  1.3055201760482E+00  6.6125352117301E-01
46  4.5000000000000E-01  1.3335793745551E+00  6.3350544294073E-01
47  4.6000000000000E-01  1.3599537100456E+00  6.0235652159411E-01
48  4.7000000000000E-01  1.3845565952622E+00  5.6796788908260E-01
49  4.8000000000000E-01  1.4073060710059E+00  5.3052899985094E-01
50  4.9000000000000E-01  1.4281252016365E+00  4.9025587183262E-01
51  5.0000000000000E-01  1.4469424726480E+00  4.4738898872375E-01
52  5.1000000000000E-01  1.4636921867410E+00  4.0219089127268E-01
53  5.2000000000000E-01  1.4783148544477E+00  3.5494349087673E-01
54  5.3000000000000E-01  1.4907575750439E+00  3.0594514382298E-01
55  5.4000000000000E-01  1.5009744032241E+00  2.5550752894658E-01
56  5.5000000000000E-01  1.5089266968202E+00  2.0395237521099E-01
57  5.6000000000000E-01  1.5145834407211E+00  1.5160808866598E-01
58  5.7000000000000E-01  1.5179215421048E+00  9.8806330339291E-02
59  5.8000000000000E-01  1.5189260921288E+00  4.5878597819332E-02
60  5.9000000000000E-01  1.5175905893415E+00 -6.8471364479067E-03
61  6.0000000000000E-01  1.5139171202799E+00 -5.9049677812386E-02
62  6.1000000000000E-01  1.5079164930036E+00 -1.1041770232926E-01
63  6.2000000000000E-01  1.4996083196829E+00 -1.6065264180717E-01
64  6.3000000000000E-01  1.4890210448028E+00 -2.0947131635708E-01
65  6.4000000000000E-01  1.4761919160637E+00 -2.5660827413007E-01
66  6.5000000000000E-01  1.4611668956475E+00 -3.0181780303907E-01
67  6.6000000000000E-01  1.4440005101579E+00 -3.4487558506043E-01
68  6.7000000000000E-01  1.4247556382430E+00 -3.8557997010772E-01
69  6.8000000000000E-01  1.4035032356431E+00 -4.2375285335210E-01
70  6.9000000000000E-01  1.3803219981699E+00 -4.5924014710769E-01
71  7.0000000000000E-01  1.3552979639099E+00 -4.9191184587774E-01
72  7.1000000000000E-01  1.3285240567310E+00 -5.2166169073176E-01
73  7.2000000000000E-01  1.3000995739572E+00 -5.4840644671510E-01
74  7.3000000000000E-01  1.2701296218366E+00 -5.7208481434052E-01
75  7.4000000000000E-01  1.2387245031640E+00 -5.9265600323766E-01
76  7.5000000000000E-01  1.2059990621041E+00 -6.1009800260573E-01
77  7.6000000000000E-01  1.1720719918974E+00 -6.2440558909968E-01
78  7.7000000000000E-01  1.1370651116964E+00 -6.3558811806256E-01
79  7.8000000000000E-01  1.1011026192710E+00 -6.4366714849006E-01
80  7.9000000000000E-01  1.0643103267277E+00 -6.4867395568325E-01
81  8.0000000000000E-01  1.0268148867023E+00 -6.5064698813603E-01
82  8.1000000000000E-01  9.8874301669705E-01 -6.4962932675459E-01
83  8.2000000000000E-01  9.5022072935061E-01 -6.4566620497447E-01
84  8.3000000000000E-01  9.1137257643014E-01 -6.3880264770411E-01
85  8.4000000000000E-01  8.7232091423649E-01 -6.2908128528346E-01
86  8.5000000000000E-01  8.3318519790452E-01 -6.1654039581090E-01
87  8.6000000000000E-01  7.9408131176852E-01 -6.0121222531332E-01
88  8.7000000000000E-01  7.5512094254940E-01 -5.8312163035315E-01
89  8.8000000000000E-01  7.1641100161248E-01 -5.6228508187261E-01
90  8.9000000000000E-01  6.7805310194899E-01 -5.3871006245359E-01
91  9.0000000000000E-01  6.4014309485835E-01 -5.1239488183034E-01
92  9.1000000000000E-01  6.0277067056393E-01 -4.8332892755972E-01
93  9.2000000000000E-01  5.6601902619020E-01 -4.5149335935245E-01
94  9.3000000000000E-01  5.2996460367849E-01 -4.1686224685179E-01
95  9.4000000000000E-01  4.9467689933230E-01 -3.7940414175469E-01
96  9.5000000000000E-01  4.6021834577567E-01 -3.3908406625917E-01
97  9.6000000000000E-01  4.2664426619125E-01 -2.9586589104380E-01
98  9.7000000000000E-01  3.9400289979346E-01 -2.4971506749170E-01
99  9.8000000000000E-01  3.6233549659723E-01 -2.0060167080956E-01
100  9.9000000000000E-01  3.3167647867897E-01 -1.4850370319661E-01
101  1.0000000000000E+00  3.0205366430393E-01 -9.3410599427898E-02
102  1.0100000000000E+00  2.7348855052549E-01 -3.5326871240190E-02
103  1.0200000000000E+00  2.4599664915548E-01  2.5724178148439E-02
104  1.0300000000000E+00  2.1958787037148E-01  8.9696742098516E-02
105  1.0400000000000E+00  1.9426694767325E-01  1.5651887686646E-01
106  1.0500000000000E+00  1.7003389743250E-01  2.2608902369295E-01
107  1.0600000000000E+00  1.4688450590381E-01  2.9827276483456E-01
108  1.0700000000000E+00  1.2481083628227E-01  3.7289989119377E-01
109  1.0800000000000E+00  1.0380174820690E-01  4.4976185749365E-01
110  1.0900000000000E+00  8.3843422019874E-02  5.2860969807674E-01
111  1.1000000000000E+00  6.4919880097442E-02  6.0915247240790E-01
112  1.1100000000000E+00  4.7013497667901E-02  6.9105630428433E-01
113  1.1200000000000E+00  3.0105495721411E-02  7.7394407266885E-01
114  1.1300000000000E+00  1.4176408891595E-02  8.5739580502011E-01
115  1.1400000000000E+00 -7.9347845703112E-04  9.4094981612182E-01
116  1.1500000000000E+00 -1.4823734271389E-02  1.0241046267288E+00
117  1.1600000000000E+00 -2.7933424822158E-02  1.1063216870377E+00
118  1.1700000000000E+00 -4.0140809967006E-02  1.1870289200367E+00
119  1.1800000000000E+00 -5.1463092334302E-02  1.2656250893855E+00
120  1.1900000000000E+00 -6.1916224435969E-02  1.3414849856207E+00
121  1.2000000000000E+00 -7.1514777014720E-02  1.4139654132828E+00
122  1.2100000000000E+00 -8.0271871193236E-02  1.4824119501171E+00
123  1.2200000000000E+00 -8.8199176216796E-02  1.5461664377248E+00
124  1.2300000000000E+00 -9.5306973782572E-02  1.6045751511710E+00
125  1.2400000000000E+00 -1.0160428911553E-01  1.6569975828684E+00
126  1.2500000000000E+00 -1.0709908809342E-01  1.7028157637013E+00
127  1.2600000000000E+00 -1.1179853883924E-01  1.7414440317747E+00
128  1.2700000000000E+00 -1.1570933527632E-01  1.7723391461703E+00
129  1.2800000000000E+00 -1.1883807918738E-01  1.7950106297763E+00
130  1.2900000000000E+00 -1.2119171632002E-01  1.8090312114016E+00
131  1.3000000000000E+00 -1.2277802102431E-01  1.8140472227894E+00
132  1.3100000000000E+00 -1.2360612279152E-01  1.8097887907814E+00
133  1.3200000000000E+00 -1.2368706687288E-01  1.7960796485239E+00
134  1.3300000000000E+00 -1.2303439986371E-01  1.7728463718451E+00