Tb    ONCVPSP-4.0.1  r_core=   2.00838   1.60001   1.90311   1.50710
65.0000     19.0000      250626    zatom,zion,pspd
8      11   3     4   600     0    pspcod,pspxc,lmax,lloc,mmax,r2well
5.99000000 12.20000000  0.00000000    rchrg fchrg qchrg
2     2     2     2     0    nproj
1     1           extension_switch
0                         6.9361698957730E+00  7.4727400551382E-01
1  0.0000000000000E+00  7.8483219922987E-11 -2.5164604428030E-10
2  1.0000000000000E-02  4.1144895042052E-02 -3.8668289980069E-03
3  2.0000000000000E-02  8.2268431941263E-02 -7.7646179339809E-03
4  3.0000000000000E-02  1.2334907646044E-01 -1.1723755157349E-02
5  4.0000000000000E-02  1.6436494427927E-01 -1.5773492169947E-02
6  5.0000000000000E-02  2.0529363119667E-01 -1.9941390961463E-02
7  6.0000000000000E-02  2.4611204956977E-01 -2.4252790076145E-02
8  7.0000000000000E-02  2.8679627297560E-01 -2.8730295356599E-02
9  8.0000000000000E-02  3.2732139100305E-01 -3.3393301058860E-02
10  9.0000000000000E-02  3.6766137598576E-01 -3.8257546722867E-02
11  1.0000000000000E-01  4.0778896337273E-01 -4.3334714817025E-02
12  1.1000000000000E-01  4.4767554730244E-01 -4.8632073758252E-02
13  1.2000000000000E-01  4.8729109280097E-01 -5.4152170443669E-02
14  1.3000000000000E-01  5.2660406586458E-01 -5.9892575921613E-02
15  1.4000000000000E-01  5.6558138251562E-01 -6.5845687282565E-02
16  1.5000000000000E-01  6.0418837773746E-01 -7.1998588270499E-02
17  1.6000000000000E-01  6.4238879500218E-01 -7.8332970507417E-02
18  1.7000000000000E-01  6.8014479690557E-01 -8.4825116594669E-02
19  1.8000000000000E-01  7.1741699721865E-01 -9.1445945710080E-02
20  1.9000000000000E-01  7.5416451445656E-01 -9.8161121666024E-02
21  2.0000000000000E-01  7.9034504685502E-01 -1.0493122273768E-01
22  2.1000000000000E-01  8.2591496843460E-01 -1.1171197191805E-01
23  2.2000000000000E-01  8.6082944562473E-01 -1.1845452561484E-01
24  2.3000000000000E-01  8.9504257371575E-01 -1.2510581817931E-01
25  2.4000000000000E-01  9.2850753220903E-01 -1.3160895905560E-01
26  2.5000000000000E-01  9.6117675794576E-01 -1.3790367876729E-01
27  2.6000000000000E-01  9.9300213471407E-01 -1.4392681942103E-01
28  2.7000000000000E-01  1.0239351978660E+00 -1.4961286491158E-01
29  2.8000000000000E-01  1.0539273523195E+00 -1.5489450556345E-01
30  2.9000000000000E-01  1.0829301021798E+00 -1.5970323154578E-01
31  3.0000000000000E-01  1.1108952900895E+00 -1.6396994905506E-01
32  3.1000000000000E-01  1.1377753443076E+00 -1.6762561297652E-01
33  3.2000000000000E-01  1.1635235314309E+00 -1.7060186951517E-01
34  3.3000000000000E-01  1.1880942125959E+00 -1.7283170213203E-01
35  3.4000000000000E-01  1.2114431009550E+00 -1.7425007403425E-01
36  3.5000000000000E-01  1.2335275181857E+00 -1.7479456044963E-01
37  3.6000000000000E-01  1.2543066477858E+00 -1.7440596396736E-01
38  3.7000000000000E-01  1.2737417829184E+00 -1.7302890634930E-01
39  3.8000000000000E-01  1.2917965666051E+00 -1.7061239040658E-01
40  3.9000000000000E-01  1.3084372221189E+00 -1.6711032579637E-01
41  4.0000000000000E-01  1.3236327715029E+00 -1.6248201291865E-01
42  4.1000000000000E-01  1.3373552402382E+00 -1.5669257948216E-01
43  4.2000000000000E-01  1.3495798461942E+00 -1.4971336475793E-01
44  4.3000000000000E-01  1.3602851711296E+00 -1.4152224704394E-01
45  4.4000000000000E-01  1.3694533131591E+00 -1.3210391042194E-01
46  4.5000000000000E-01  1.3770700187670E+00 -1.2145004749025E-01
47  4.6000000000000E-01  1.3831247931244E+00 -1.0955949540114E-01
48  4.7000000000000E-01  1.3876109876610E+00 -9.6438303209553E-02
49  4.8000000000000E-01  1.3905258640405E+00 -8.2099729247059E-02
50  4.9000000000000E-01  1.3918706339007E+00 -6.6564167961927E-02
51  5.0000000000000E-01  1.3916504739365E+00 -4.9859006408157E-02
52  5.1000000000000E-01  1.3898745161230E+00 -3.2018411312951E-02
53  5.2000000000000E-01  1.3865558131035E+00 -1.3083048399095E-02
54  5.3000000000000E-01  1.3817112789883E+00  6.9002636256943E-03
55  5.4000000000000E-01  1.3753616060354E+00  2.7878961279430E-02
56  5.5000000000000E-01  1.3675311579008E+00  4.9795202889016E-02
57  5.6000000000000E-01  1.3582478403611E+00  7.2586389054973E-02
58  5.7000000000000E-01  1.3475429506119E+00  9.6185731883069E-02
59  5.8000000000000E-01  1.3354510064450E+00  1.2052286729055E-01
60  5.9000000000000E-01  1.3220095567826E+00  1.4552450417007E-01
61  6.0000000000000E-01  1.3072589752224E+00  1.7111510372878E-01
62  6.1000000000000E-01  1.2912422383927E+00  1.9721758191807E-01
63  6.2000000000000E-01  1.2740046910590E+00  2.2375402753804E-01
64  6.3000000000000E-01  1.2555938000344E+00  2.5064642834191E-01
65  6.4000000000000E-01  1.2360588990472E+00  2.7781739728405E-01
66  6.5000000000000E-01  1.2154509267956E+00  3.0519089095428E-01
67  6.6000000000000E-01  1.1938221604727E+00  3.3269291222095E-01
68  6.7000000000000E-01  1.1712259470802E+00  3.6025218916892E-01
69  6.8000000000000E-01  1.1477164348606E+00  3.8780082256498E-01
70  6.9000000000000E-01  1.1233483071658E+00  4.1527489431265E-01
71  7.0000000000000E-01  1.0981765210459E+00  4.4261502966847E-01
72  7.1000000000000E-01  1.0722560527909E+00  4.6976690638163E-01
73  7.2000000000000E-01  1.0456416525761E+00  4.9668170438343E-01
74  7.3000000000000E-01  1.0183876102711E+00  5.2331649019046E-01
75  7.4000000000000E-01  9.9054753435151E-01  5.4963453078860E-01
76  7.5000000000000E-01  9.6217414572193E-01  5.7560553243152E-01
77  7.6000000000000E-01  9.3331908810566E-01  6.0120580050701E-01
78  7.7000000000000E-01  9.0403275649114E-01  6.2641831739555E-01
79  7.8000000000000E-01  8.7436414494510E-01  6.5123273605605E-01
80  7.9000000000000E-01  8.4436071491108E-01  6.7564528791889E-01
81  8.0000000000000E-01  8.1406828491015E-01  6.9965860453765E-01
82  8.1000000000000E-01  7.8353094235157E-01  7.2328145333928E-01
83  8.2000000000000E-01  7.5279097794584E-01  7.4652838870969E-01
84  8.3000000000000E-01  7.2188884299341E-01  7.6941932055042E-01
85  8.4000000000000E-01  6.9086312960168E-01  7.9197900333154E-01
86  8.5000000000000E-01  6.5975057366203E-01  8.1423644954038E-01
87  8.6000000000000E-01  6.2858608020041E-01  8.3622427227449E-01
88  8.7000000000000E-01  5.9740277050046E-01  8.5797796254502E-01
89  8.8000000000000E-01  5.6623205018941E-01  8.7953510763390E-01
90  8.9000000000000E-01  5.3510369727637E-01  9.0093455757915E-01
91  9.0000000000000E-01  5.0404596893970E-01  9.2221554754142E-01
92  9.1000000000000E-01  4.7308572567916E-01  9.4341678442386E-01
93  9.2000000000000E-01  4.4224857127762E-01  9.6457550667391E-01
94  9.3000000000000E-01  4.1155900685958E-01  9.8572652668382E-01
95  9.4000000000000E-01  3.8104059718925E-01  1.0069012656232E+00
96  9.5000000000000E-01  3.5071614722041E-01  1.0281267908796E+00
97  9.6000000000000E-01  3.2060788679433E-01  1.0494248665496E+00
98  9.7000000000000E-01  2.9073766128021E-01  1.0708110276107E+00
99  9.8000000000000E-01  2.6112712586670E-01  1.0922936885157E+00
100  9.9000000000000E-01  2.3179794114047E-01  1.1138732969824E+00
101  1.0000000000000E+00  2.0277196753115E-01  1.1355415437068E+00
102  1.0100000000000E+00  1.7407145615871E-01  1.1572806386045E+00
103  1.0200000000000E+00  1.4571923359056E-01  1.1790626639898E+00
104  1.0300000000000E+00  1.1773887800024E-01  1.2008490148299E+00
105  1.0400000000000E+00  9.0154884217548E-02  1.2225899358688E+00
106  1.0500000000000E+00  6.2992815170507E-02  1.2442241650080E+00
107  1.0600000000000E+00  3.6279437242948E-02  1.2656786918462E+00
108  1.0700000000000E+00  1.0042837107030E-02  1.2868686397403E+00
109  1.0800000000000E+00 -1.5687482361945E-02  1.3076972791353E+00
110  1.0900000000000E+00 -4.0880529420639E-02  1.3280561792395E+00
111  1.1000000000000E+00 -6.5503776301412E-02  1.3478255043781E+00
112  1.1100000000000E+00 -8.9523139736175E-02  1.3668744605566E+00
113  1.1200000000000E+00 -1.1290299123013E-01  1.3850618968871E+00
114  1.1300000000000E+00 -1.3560619903684E-01  1.4022370655896E+00
115  1.1400000000000E+00 -1.5759420365024E-01  1.4182405432558E+00
116  1.1500000000000E+00 -1.7882712847270E-01  1.4329053149594E+00
117  1.1600000000000E+00 -1.9926392713880E-01  1.4460580216014E+00
118  1.1700000000000E+00 -2.1886256876887E-01  1.4575203695860E+00
119  1.1800000000000E+00 -2.3758026219035E-01  1.4671107005124E+00
120  1.1900000000000E+00 -2.5537371989508E-01  1.4746457170415E+00
121  1.2000000000000E+00 -2.7219946219043E-01  1.4799423594207E+00
122  1.2100000000000E+00 -2.8801416164931E-01  1.4828198253290E+00
123  1.2200000000000E+00 -3.0277502755712E-01  1.4831017236933E+00
124  1.2300000000000E+00 -3.1644022959397E-01  1.4806183509358E+00
125  1.2400000000000E+00 -3.2896935946239E-01  1.4752090756893E+00
126  1.2500000000000E+00 -3.4032392857235E-01  1.4667248153489E+00
127  1.2600000000000E+00 -3.5046789921967E-01  1.4550305849106E+00
128  1.2700000000000E+00 -3.5936824592359E-01  1.4400080952960E+00
129  1.2800000000000E+00 -3.6699554272643E-01  1.4215583748096E+00
130  1.2900000000000E+00 -3.7332457128888E-01  1.3996043834617E+00
131  1.3000000000000E+00 -3.7833494352161E-01  1.3740935855541E+00
132  1.3100000000000E+00 -3.8201173127874E-01  1.3450004411873E+00
133  1.3200000000000E+00 -3.8434609428963E-01  1.3123287721532E+00
134  1.3300000000000E+00 -3.8533589599387E-01  1.2761139519331E+00
135  1.3400000000000E+00 -3.8498629528453E-01  1.2364248632788E+00
136  1.3500000000000E+00 -3.8331030032748E-01  1.1933655600099E+00
137  1.3600000000000E+00 -3.8032926860452E-01  1.1470765621964E+00
138  1.3700000000000E+00 -3.7607333510434E-01  1.0977357057376E+00
139  1.3800000000000E+00 -3.7058174815997E-01  1.0455584585067E+00
140  1.3900000000000E+00 -3.6390308977574E-01  9.9079760559488E-01
141  1.4000000000000E+00 -3.5609535440357E-01  9.3374219578302E-01
142  1.4100000000000E+00 -3.4722585697360E-01  8.7471563001826E-01
143  1.4200000000000E+00 -3.3737093758533E-01  8.1407276048945E-01
144  1.4300000000000E+00 -3.2661542656843E-01  7.5219585567432E-01
145  1.4400000000000E+00 -3.1505182963073E-01  6.8948927248993E-01
146  1.4500000000000E+00 -3.0277918851516E-01  6.2637266137523E-01
147  1.4600000000000E+00 -2.8990156792741E-01  5.6327251355821E-01
148  1.4700000000000E+00 -2.7652611451781E-01  5.0061184206637E-01
149  1.4800000000000E+00 -2.6276062832694E-01  4.3879776895096E-01
150  1.4900000000000E+00 -2.4871057898034E-01  3.7820675733212E-01
151  1.5000000000000E+00 -2.3447553012076E-01  3.1916742086335E-01
152  1.5100000000000E+00 -2.2014469323766E-01  2.6193944397818E-01
153  1.5200000000000E+00 -2.0579437136769E-01  2.0670487269406E-01
154  1.5300000000000E+00 -1.9149394104911E-01  1.5360857206668E-01
155  1.5400000000000E+00 -1.7731064013180E-01  1.0278837496771E-01
156  1.5500000000000E+00 -1.6330917750707E-01  5.4373713332058E-02
157  1.5600000000000E+00 -1.4955142547616E-01  8.4847350110540E-03
158  1.5700000000000E+00 -1.3609608163522E-01 -3.4768812667578E-02
159  1.5800000000000E+00 -1.2299834876104E-01 -7.5288639170471E-02
160  1.5900000000000E+00 -1.1030963783025E-01 -1.1298888477978E-01
161  1.6000000000000E+00 -9.8077295817420E-02 -1.4779700931953E-01
162  1.6100000000000E+00 -8.6344360938416E-02 -1.7965458597637E-01
163  1.6200000000000E+00 -7.5149347767122E-02 -2.0851799148615E-01
164  1.6300000000000E+00 -6.4526064443968E-02 -2.3435898465312E-01
165  1.6400000000000E+00 -5.4503463914102E-02 -2.5716516619576E-01
166  1.6500000000000E+00 -4.5105530821941E-02 -2.7694031405799E-01
167  1.6600000000000E+00 -3.6351205349194E-02 -2.9370458958794E-01
168  1.6700000000000E+00 -2.8254345395455E-02 -3.0749460895948E-01
169  1.6800000000000E+00 -2.0823727023252E-02 -3.1836338115548E-01
170  1.6900000000000E+00 -1.4063084393849E-02 -3.2638010677871E-01
171  1.7000000000000E+00 -7.9711885962466E-03 -3.3162984061986E-01
172  1.7100000000000E+00 -2.5419652575262E-03 -3.3421301796411E-01
173  1.7200000000000E+00  2.2353498347227E-03 -3.3424484741225E-01
174  1.7300000000000E+00  6.3760181315135E-03 -3.3185457382547E-01
175  1.7400000000000E+00  9.8995701509467E-03 -3.2718461638938E-01
176  1.7500000000000E+00  1.2829543473671E-02 -3.2038958797346E-01
177  1.7600000000000E+00  1.5193188934023E-02 -3.1163520297907E-01
178  1.7700000000000E+00  1.7021147376169E-02 -3.0109708213898E-01
179  1.7800000000000E+00  1.8347099589959E-02 -2.8895946357505E-01
180  1.7900000000000E+00  1.9207392335264E-02 -2.7541383051513E-01
181  1.8000000000000E+00  1.9640643562371E-02 -2.6065746675221E-01
182  1.8100000000000E+00  1.9687330166331E-02 -2.4489195178312E-01
183  1.8200000000000E+00  1.9389361788339E-02 -2.2832160819358E-01
184  1.8300000000000E+00  1.8789644311905E-02 -2.1115191433356E-01
185  1.8400000000000E+00  1.7931636813224E-02 -1.9358789573142E-01
186  1.8500000000000E+00  1.6858905821654E-02 -1.7583250906085E-01
187  1.8600000000000E+00  1.5614680769992E-02 -1.5808503254637E-01
188  1.8700000000000E+00  1.4241414889698E-02 -1.4053947781144E-01
189  1.8800000000000E+00  1.2780353166473E-02 -1.2338303037871E-01
190  1.8900000000000E+00  1.1271112591859E-02 -1.0679453683981E-01
191  1.9000000000000E+00  9.7513064985906E-03 -9.0943132094008E-02
192  1.9100000000000E+00  8.2559051439048E-03 -7.5986120030059E-02
193  1.9200000000000E+00  6.8152559843095E-03 -6.2062801628117E-02
194  1.9300000000000E+00  5.4580502603999E-03 -4.9303023278986E-02
195  1.9400000000000E+00  4.2115852864566E-03 -3.7827883551078E-02
196  1.9500000000000E+00  3.0990176415334E-03 -2.7741524262924E-02
197  1.9600000000000E+00  2.1394944687155E-03 -1.9131334537807E-02
198  1.9700000000000E+00  1.3479062939355E-03 -1.2067087506067E-02
199  1.9800000000000E+00  7.3500814967694E-04 -6.6029422894977E-03
200  1.9900000000000E+00  3.0424323072853E-04 -2.7486228448233E-03
201  2.0000000000000E+00  6.6811758443595E-05 -6.0868937374507E-04
202  2.0100000000000E+00 -3.8488386877804E-06  3.5304075561614E-05
203  2.0200000000000E+00 -4.5857923690611E-07  4.2264846659035E-06
204  2.03  0. -0.
205  2.04 -0.  0.
206  2.05 -0. -0.
207  2.06  0.  0.
208  2.07  0.  0.
209  2.08  0.  0.
210  2.09  0.  0.
211  2.10  0.  0.
212  2.11  0.  0.
213  2.12  0.  0.
214  2.13  0.  0.
215  2.14  0.  0.
216  2.15  0.  0.
217  2.16  0.  0.
218  2.17  0.  0.
219  2.18  0.  0.
220  2.19  0.  0.
221  2.20  0.  0.
222  2.21  0.  0.
223  2.22  0.  0.
224  2.23  0.  0.
225  2.24  0.  0.
226  2.25  0.  0.
227  2.26  0.  0.
228  2.27  0.  0.
229  2.28  0.  0.
230  2.29  0.  0.
231  2.30  0.  0.
232  2.31  0.  0.
233  2.32  0.  0.
234  2.33  0.  0.
235  2.34  0.  0.
236  2.35  0.  0.
237  2.36  0.  0.
238  2.37  0.  0.
239  2.38  0.  0.
240  2.39  0.  0.
241  2.40  0.  0.
242  2.41  0.  0.
243  2.42  0.  0.
244  2.43  0.  0.
245  2.44  0.  0.
246  2.45  0.  0.
247  2.46  0.  0.
248  2.47  0.  0.
249  2.48  0.  0.
250  2.49  0.  0.
251  2.50  0.  0.
252  2.51  0.  0.
253  2.52  0.  0.
254  2.53  0.  0.
255  2.54  0.  0.
256  2.55  0.  0.
257  2.56  0.  0.
258  2.57  0.  0.
259  2.58  0.  0.
260  2.59  0.  0.
261  2.60  0.  0.
262  2.61  0.  0.
263  2.62  0.  0.
264  2.63  0.  0.
265  2.64  0.  0.
266  2.65  0.  0.
267  2.66  0.  0.
268  2.67  0.  0.
269  2.68  0.  0.
270  2.69  0.  0.
271  2.70  0.  0.
272  2.71  0.  0.
273  2.72  0.  0.
274  2.73  0.  0.
275  2.74  0.  0.
276  2.75  0.  0.
277  2.76  0.  0.
278  2.77  0.  0.
279  2.78  0.  0.
280  2.79  0.  0.
281  2.80  0.  0.
282  2.81  0.  0.
283  2.82  0.  0.
284  2.83  0.  0.
285  2.84  0.  0.
286  2.85  0.  0.
287  2.86  0.  0.
288  2.87  0.  0.
289  2.88  0.  0.
290  2.89  0.  0.
291  2.90  0.  0.
292  2.91  0.  0.
293  2.92  0.  0.
294  2.93  0.  0.
295  2.94  0.  0.
296  2.95  0.  0.
297  2.96  0.  0.
298  2.97  0.  0.
299  2.98  0.  0.
300  2.99  0.  0.
301  3.00  0.  0.
302  3.01  0.  0.
303  3.02  0.  0.
304  3.03  0.  0.
305  3.04  0.  0.
306  3.05  0.  0.
307  3.06  0.  0.
308  3.07  0.  0.
309  3.08  0.  0.
310  3.09  0.  0.
311  3.10  0.  0.
312  3.11  0.  0.
313  3.12  0.  0.
314  3.13  0.  0.
315  3.14  0.  0.
316  3.15  0.  0.
317  3.16  0.  0.
318  3.17  0.  0.
319  3.18  0.  0.
320  3.19  0.  0.
321  3.20  0.  0.
322  3.21  0.  0.
323  3.22  0.  0.
324  3.23  0.  0.
325  3.24  0.  0.
326  3.25  0.  0.
327  3.26  0.  0.
328  3.27  0.  0.
329  3.28  0.  0.
330  3.29  0.  0.
331  3.30  0.  0.
332  3.31  0.  0.
333  3.32  0.  0.
334  3.33  0.  0.
335  3.34  0.  0.
336  3.35  0.  0.
337  3.36  0.  0.
338  3.37  0.  0.
339  3.38  0.  0.
340  3.39  0.  0.
341  3.40  0.  0.
342  3.41  0.  0.
343  3.42  0.  0.
344  3.43  0.  0.
345  3.44  0.  0.
346  3.45  0.  0.
347  3.46  0.  0.
348  3.47  0.  0.
349  3.48  0.  0.
350  3.49  0.  0.
351  3.50  0.  0.
352  3.51  0.  0.
353  3.52  0.  0.
354  3.53  0.  0.
355  3.54  0.  0.
356  3.55  0.  0.
357  3.56  0.  0.
358  3.57  0.  0.
359  3.58  0.  0.
360  3.59  0.  0.
361  3.60  0.  0.
362  3.61  0.  0.
363  3.62  0.  0.
364  3.63  0.  0.
365  3.64  0.  0.
366  3.65  0.  0.
367  3.66  0.  0.
368  3.67  0.  0.
369  3.68  0.  0.
370  3.69  0.  0.
371  3.70  0.  0.
372  3.71  0.  0.
373  3.72  0.  0.
374  3.73  0.  0.
375  3.74  0.  0.
376  3.75  0.  0.
377  3.76  0.  0.
378  3.77  0.  0.
379  3.78  0.  0.
380  3.79  0.  0.
381  3.80  0.  0.
382  3.81  0.  0.
383  3.82  0.  0.
384  3.83  0.  0.
385  3.84  0.  0.
386  3.85  0.  0.
387  3.86  0.  0.
388  3.87  0.  0.
389  3.88  0.  0.
390  3.89  0.  0.
391  3.90  0.  0.
392  3.91  0.  0.
393  3.92  0.  0.
394  3.93  0.  0.
395  3.94  0.  0.
396  3.95  0.  0.
397  3.96  0.  0.
398  3.97  0.  0.
399  3.98  0.  0.
400  3.99  0.  0.
401  4.00  0.  0.
402  4.01  0.  0.
403  4.02  0.  0.
404  4.03  0.  0.
405  4.04  0.  0.
406  4.05  0.  0.
407  4.06  0.  0.
408  4.07  0.  0.
409  4.08  0.  0.
410  4.09  0.  0.
411  4.10  0.  0.
412  4.11  0.  0.
413  4.12  0.  0.
414  4.13  0.  0.
415  4.14  0.  0.
416  4.15  0.  0.
417  4.16  0.  0.
418  4.17  0.  0.
419  4.18  0.  0.
420  4.19  0.  0.
421  4.20  0.  0.
422  4.21  0.  0.
423  4.22  0.  0.
424  4.23  0.  0.
425  4.24  0.  0.
426  4.25  0.  0.
427  4.26  0.  0.
428  4.27  0.  0.
429  4.28  0.  0.
430  4.29  0.  0.
431  4.30  0.  0.
432  4.31  0.  0.
433  4.32  0.  0.
434  4.33  0.  0.
435  4.34  0.  0.
436  4.35  0.  0.
437  4.36  0.  0.
438  4.37  0.  0.
439  4.38  0.  0.
440  4.39  0.  0.
441  4.40  0.  0.
442  4.41  0.  0.
443  4.42  0.  0.
444  4.43  0.  0.
445  4.44  0.  0.
446  4.45  0.  0.
447  4.46  0.  0.
448  4.47  0.  0.
449  4.48  0.  0.
450  4.49  0.  0.
451  4.50  0.  0.
452  4.51  0.  0.
453  4.52  0.  0.
454  4.53  0.  0.
455  4.54  0.  0.
456  4.55  0.  0.
457  4.56  0.  0.
458  4.57  0.  0.
459  4.58  0.  0.
460  4.59  0.  0.
461  4.60  0.  0.
462  4.61  0.  0.
463  4.62  0.  0.
464  4.63  0.  0.
465  4.64  0.  0.
466  4.65  0.  0.
467  4.66  0.  0.
468  4.67  0.  0.
469  4.68  0.  0.
470  4.69  0.  0.
471  4.70  0.  0.
472  4.71  0.  0.
473  4.72  0.  0.
474  4.73  0.  0.
475  4.74  0.  0.
476  4.75  0.  0.
477  4.76  0.  0.
478  4.77  0.  0.
479  4.78  0.  0.
480  4.79  0.  0.
481  4.80  0.  0.
482  4.81  0.  0.
483  4.82  0.  0.
484  4.83  0.  0.
485  4.84  0.  0.
486  4.85  0.  0.
487  4.86  0.  0.
488  4.87  0.  0.
489  4.88  0.  0.
490  4.89  0.  0.
491  4.90  0.  0.
492  4.91  0.  0.
493  4.92  0.  0.
494  4.93  0.  0.
495  4.94  0.  0.
496  4.95  0.  0.
497  4.96  0.  0.
498  4.97  0.  0.
499  4.98  0.  0.
500  4.99  0.  0.
501  5.00  0.  0.
502  5.01  0.  0.
503  5.02  0.  0.
504  5.03  0.  0.
505  5.04  0.  0.
506  5.05  0.  0.
507  5.06  0.  0.
508  5.07  0.  0.
509  5.08  0.  0.
510  5.09  0.  0.
511  5.10  0.  0.
512  5.11  0.  0.
513  5.12  0.  0.
514  5.13  0.  0.
515  5.14  0.  0.
516  5.15  0.  0.
517  5.16  0.  0.
518  5.17  0.  0.
519  5.18  0.  0.
520  5.19  0.  0.
521  5.20  0.  0.
522  5.21  0.  0.
523  5.22  0.  0.
524  5.23  0.  0.
525  5.24  0.  0.
526  5.25  0.  0.
527  5.26  0.  0.
528  5.27  0.  0.
529  5.28  0.  0.
530  5.29  0.  0.
531  5.30  0.  0.
532  5.31  0.  0.
533  5.32  0.  0.
534  5.33  0.  0.
535  5.34  0.  0.
536  5.35  0.  0.
537  5.36  0.  0.
538  5.37  0.  0.
539  5.38  0.  0.
540  5.39  0.  0.
541  5.40  0.  0.
542  5.41  0.  0.
543  5.42  0.  0.
544  5.43  0.  0.
545  5.44  0.  0.
546  5.45  0.  0.
547  5.46  0.  0.
548  5.47  0.  0.
549  5.48  0.  0.
550  5.49  0.  0.
551  5.50  0.  0.
552  5.51  0.  0.
553  5.52  0.  0.
554  5.53  0.  0.
555  5.54  0.  0.
556  5.55  0.  0.
557  5.56  0.  0.
558  5.57  0.  0.
559  5.58  0.  0.
560  5.59  0.  0.
561  5.60  0.  0.
562  5.61  0.  0.
563  5.62  0.  0.
564  5.63  0.  0.
565  5.64  0.  0.
566  5.65  0.  0.
567  5.66  0.  0.
568  5.67  0.  0.
569  5.68  0.  0.
570  5.69  0.  0.
571  5.70  0.  0.
572  5.71  0.  0.
573  5.72  0.  0.
574  5.73  0.  0.
575  5.74  0.  0.
576  5.75  0.  0.
577  5.76  0.  0.
578  5.77  0.  0.
579  5.78  0.  0.
580  5.79  0.  0.
581  5.80  0.  0.
582  5.81  0.  0.
583  5.82  0.  0.
584  5.83  0.  0.
585  5.84  0.  0.
586  5.85  0.  0.
587  5.86  0.  0.
588  5.87  0.  0.
589  5.88  0.  0.
590  5.89  0.  0.
591  5.90  0.  0.
592  5.91  0.  0.
593  5.92  0.  0.
594  5.93  0.  0.
595  5.94  0.  0.
596  5.95  0.  0.
597  5.96  0.  0.
598  5.97  0.  0.
599  5.98  0.  0.
600  5.99  0.  0.
1                         5.5522973237142E+00  3.4077489634909E-01
1  0.0000000000000E+00  6.7894333627416E-09 -4.2679760225983E-08
2  1.0000000000000E-02  1.4557874792894E-03 -3.7566581320004E-03
3  2.0000000000000E-02  5.8098648554055E-03 -1.4953094045479E-02
4  3.0000000000000E-02  1.3022593371270E-02 -3.3370054640995E-02
5  4.0000000000000E-02  2.3028625893307E-02 -5.8646634396017E-02
6  5.0000000000000E-02  3.5737969296746E-02 -9.0286963300489E-02
7  6.0000000000000E-02  5.1037444452592E-02 -1.2766939851613E-01
8  7.0000000000000E-02  6.8792517069298E-02 -1.7005805203130E-01
9  8.0000000000000E-02  8.8849465852780E-02 -2.1661644390354E-01
10  9.0000000000000E-02  1.1103784827704E-01 -2.6642303180474E-01
11  1.0000000000000E-01  1.3517321881806E-01 -3.1848833321209E-01
12  1.1000000000000E-01  1.6106004989690E-01 -3.7177332734675E-01
13  1.2000000000000E-01  1.8849480208870E-01 -4.2520880037901E-01
14  1.3000000000000E-01  2.1726908745179E-01 -4.7771527992634E-01
15  1.4000000000000E-01  2.4717286816606E-01 -5.2822319378792E-01
16  1.5000000000000E-01  2.7799763207255E-01 -5.7569288338907E-01
17  1.6000000000000E-01  3.0953948719051E-01 -6.1913410464198E-01
18  1.7000000000000E-01  3.4160211884505E-01 -6.5762465782499E-01
19  1.8000000000000E-01  3.7399955564057E-01 -6.9032780349227E-01
20  1.9000000000000E-01  4.0655869411573E-01 -7.1650814307207E-01
21  2.0000000000000E-01  4.3912153645033E-01 -7.3554567031489E-01
22  2.1000000000000E-01  4.7154710097876E-01 -7.4694773261667E-01
23  2.2000000000000E-01  5.0371297140307E-01 -7.5035867888539E-01
24  2.3000000000000E-01  5.3551645737642E-01 -7.4556701236021E-01
25  2.4000000000000E-01  5.6687534642232E-01 -7.3250991188749E-01
26  2.5000000000000E-01  5.9772823483198E-01 -7.1127503279283E-01
27  2.6000000000000E-01  6.2803443309944E-01 -6.8209954780511E-01
28  2.7000000000000E-01  6.5777344946748E-01 -6.4536643860114E-01
29  2.8000000000000E-01  6.8694406311683E-01 -6.0159809853739E-01
30  2.9000000000000E-01  7.1556300629042E-01 -5.5144735611914E-01
31  3.0000000000000E-01  7.4366328205922E-01 -4.9568607583590E-01
32  3.1000000000000E-01  7.7129215136793E-01 -4.3519153731205E-01
33  3.2000000000000E-01  7.9850882931838E-01 -3.7093083447645E-01
34  3.3000000000000E-01  8.2538193623670E-01 -3.0394357290095E-01
35  3.4000000000000E-01  8.5198675382237E-01 -2.3532317492833E-01
36  3.5000000000000E-01  8.7840234050183E-01 -1.6619712812727E-01
37  3.6000000000000E-01  9.0470856293384E-01 -9.7706532496334E-02
38  3.7000000000000E-01  9.3098310238183E-01 -3.0985315321212E-02
39  3.8000000000000E-01  9.5729849534513E-01  3.2860510588127E-02
40  3.9000000000000E-01  9.8371926740949E-01  9.2773169522657E-02
41  4.0000000000000E-01  1.0102992177422E+00  1.4776265738135E-01
42  4.1000000000000E-01  1.0370789090438E+00  1.9692513255071E-01
43  4.2000000000000E-01  1.0640834141214E+00  2.3945982758150E-01
44  4.3000000000000E-01  1.0913203656308E+00  2.7468417213540E-01
45  4.4000000000000E-01  1.1187783500322E+00  3.0204684937155E-01
46  4.5000000000000E-01  1.1464256805085E+00  3.2113854472799E-01
47  4.6000000000000E-01  1.1742095766335E+00  3.3170018726402E-01
48  4.7000000000000E-01  1.2020557710564E+00  3.3362852862723E-01
49  4.8000000000000E-01  1.2298685555498E+00  3.2697895248423E-01
50  4.9000000000000E-01  1.2575312705751E+00  3.1196545704436E-01
51  5.0000000000000E-01  1.2849072342194E+00  2.8895780420757E-01
52  5.1000000000000E-01  1.3118410980933E+00  2.5847587996090E-01
53  5.2000000000000E-01  1.3381606097088E+00  2.2118136099936E-01
54  5.3000000000000E-01  1.3636787531348E+00  1.7786683124482E-01
55  5.4000000000000E-01  1.3881962324875E+00  1.2944253808626E-01
56  5.5000000000000E-01  1.4115042562034E+00  7.6921020927730E-02
57  5.6000000000000E-01  1.4333875741803E+00  2.1399883219379E-02
58  5.7000000000000E-01  1.4536277148727E+00 -3.5956987144310E-02
59  5.8000000000000E-01  1.4720063653841E+00 -9.3939415968522E-02
60  5.9000000000000E-01  1.4883088345933E+00 -1.5131180416917E-01
61  6.0000000000000E-01  1.5023275374428E+00 -2.0683448142594E-01
62  6.1000000000000E-01  1.5138654377383E+00 -2.5928517202902E-01
63  6.2000000000000E-01  1.5227393871908E+00 -3.0748019074787E-01
64  6.3000000000000E-01  1.5287832999591E+00 -3.5029499136955E-01
65  6.4000000000000E-01  1.5318511046052E+00 -3.8668370223277E-01
66  6.5000000000000E-01  1.5318194191124E+00 -4.1569730141445E-01
67  6.6000000000000E-01  1.5285898993621E+00 -4.3650010887221E-01
68  6.7000000000000E-01  1.5220912171483E+00 -4.4838430336280E-01
69  6.8000000000000E-01  1.5122806303122E+00 -4.5078220778474E-01
70  6.9000000000000E-01  1.4991451147937E+00 -4.4327612707261E-01
71  7.0000000000000E-01  1.4827020361878E+00 -4.2560556716564E-01
72  7.1000000000000E-01  1.4629993466156E+00 -3.9767171105661E-01
73  7.2000000000000E-01  1.4401153012242E+00 -3.5953907763816E-01
74  7.3000000000000E-01  1.4141576972577E+00 -3.1143434007187E-01
75  7.4000000000000E-01  1.3852626472301E+00 -2.5374233178468E-01
76  7.5000000000000E-01  1.3535929061277E+00 -1.8699931898897E-01
77  7.6000000000000E-01  1.3193357806067E+00 -1.1188366789640E-01
78  7.7000000000000E-01  1.2827006556898E+00 -2.9204081639087E-02
79  7.8000000000000E-01  1.2439161813575E+00  6.0114374532996E-02
80  7.9000000000000E-01  1.2032271675480E+00  1.5504620175179E-01
81  8.0000000000000E-01  1.1608912413090E+00  2.5448305705951E-01
82  8.1000000000000E-01  1.1171753240855E+00  3.5725268210750E-01
83  8.2000000000000E-01  1.0723519903029E+00  4.6213882596432E-01
84  8.3000000000000E-01  1.0266957704536E+00  5.6790180017149E-01
85  8.4000000000000E-01  9.8047946277478E-01  6.7329929408896E-01
86  8.5000000000000E-01  9.3397051730801E-01  7.7710707535302E-01
87  8.6000000000000E-01  8.8742755465400E-01  8.7813920396931E-01
88  8.7000000000000E-01  8.4109707911161E-01  9.7526739909922E-01
89  8.8000000000000E-01  7.9521044216837E-01  1.0674392147520E+00
90  8.9000000000000E-01  7.4998110755967E-01  1.1536947040315E+00
91  9.0000000000000E-01  7.0560226342598E-01  1.2331812808490E+00
92  9.1000000000000E-01  6.6224482058044E-01  1.3051665225366E+00
93  9.2000000000000E-01  6.2005582867599E-01  1.3690486959197E+00
94  9.3000000000000E-01  5.7915733426790E-01  1.4243648323856E+00
95  9.4000000000000E-01  5.3964569655291E-01  1.4707962235016E+00
96  9.5000000000000E-01  5.0159136808432E-01  1.5081712569169E+00
97  9.6000000000000E-01  4.6503913917258E-01  1.5364655617327E+00
98  9.7000000000000E-01  4.3000883614723E-01  1.5557994822916E+00
99  9.8000000000000E-01  3.9649645533464E-01  1.5664329485257E+00
100  9.9000000000000E-01  3.6447570665508E-01  1.5687578586714E+00
101  1.0000000000000E+00  3.3389993330855E-01  1.5632881354446E+00
102  1.0100000000000E+00  3.0470436724205E-01  1.5506476588218E+00
103  1.0200000000000E+00  2.7680867408790E-01  1.5315563166739E+00
104  1.0300000000000E+00  2.5011973615158E-01  1.5068144479108E+00
105  1.0400000000000E+00  2.2453461789569E-01  1.4772859809548E+00
106  1.0500000000000E+00  1.9994365528098E-01  1.4438805927991E+00
107  1.0600000000000E+00  1.7623360834895E-01  1.4075352302109E+00
108  1.0700000000000E+00  1.5329081558181E-01  1.3691953445808E+00
109  1.0800000000000E+00  1.3100428887265E-01  1.3297961953545E+00
110  1.0900000000000E+00  1.0926868936091E-01  1.2902445739051E+00
111  1.1000000000000E+00  8.7987126907285E-02  1.2514012902174E+00
112  1.1100000000000E+00  6.7073729540659E-02  1.2140647490853E+00
113  1.1200000000000E+00  4.6455933727432E-02  1.1789559210566E+00
114  1.1300000000000E+00  2.6076451719930E-02  1.1467049864218E+00
115  1.1400000000000E+00  5.8948783897506E-03  1.1178398988898E+00
116  1.1500000000000E+00 -1.4111093219099E-02  1.0927770795278E+00
117  1.1600000000000E+00 -3.3944871074811E-02  1.0718144121469E+00
118  1.1700000000000E+00 -5.3590593812579E-02  1.0551266688982E+00
119  1.1800000000000E+00 -7.3013198665271E-02  1.0427634505882E+00
120  1.1900000000000E+00 -9.2158927436896E-02  1.0346496806124E+00
121  1.2000000000000E+00 -1.1095626230091E-01  1.0305886453688E+00
122  1.2100000000000E+00 -1.2931727543816E-01  1.0302675284660E+00
123  1.2200000000000E+00 -1.4713936903692E-01  1.0332653413018E+00
124  1.2300000000000E+00 -1.6430737519714E-01  1.0390631100439E+00
125  1.2400000000000E+00 -1.8069597879948E-01  1.0470561385863E+00
126  1.2500000000000E+00 -1.9617242060634E-01  1.0565681298334E+00
127  1.2600000000000E+00 -2.1059943280524E-01  1.0668669139735E+00
128  1.2700000000000E+00 -2.2383835491225E-01  1.0771815024036E+00
129  1.2800000000000E+00 -2.3575237453400E-01  1.0867201603813E+00
130  1.2900000000000E+00 -2.4620983490750E-01  1.0946891701466E+00
131  1.3000000000000E+00 -2.5508754941645E-01  1.1003119392892E+00
132  1.3100000000000E+00 -2.6227406241549E-01  1.1028480966351E+00
133  1.3200000000000E+00 -2.6767279561166E-01  1.1016122095481E+00
134  1.3300000000000E+00 -2.7120501991869E-01  1.0959917520470E+00