Yb    ONCVPSP-4.0.1  r_core=   2.00372   1.60588   1.91009   1.40785
70.0000     24.0000      250626    zatom,zion,pspd
8      11   3     4   600     0    pspcod,pspxc,lmax,lloc,mmax,r2well
5.99000000  7.80000000  0.00000000    rchrg fchrg qchrg
2     2     2     2     0    nproj
1     1           extension_switch
0                         6.6916376020992E+00  9.6431504877545E-01
1  0.0000000000000E+00  7.9941553376983E-11 -2.2519410988742E-10
2  1.0000000000000E-02  4.6000424179518E-02 -1.5545444324943E-03
3  2.0000000000000E-02  9.1964042833970E-02 -3.1381990760991E-03
4  3.0000000000000E-02  1.3785391286021E-01 -4.7795432527799E-03
5  4.0000000000000E-02  1.8363281806300E-01 -6.5061002947773E-03
6  5.0000000000000E-02  2.2926313774867E-01 -8.3438239635383E-03
7  6.0000000000000E-02  2.7470672142942E-01 -1.0316602004448E-02
8  7.0000000000000E-02  3.1992477158060E-01 -1.2445782282934E-02
9  8.0000000000000E-02  3.6487773631345E-01 -1.4749726722310E-02
10  9.0000000000000E-02  4.0952521372708E-01 -1.7243397986163E-02
11  1.0000000000000E-01  4.5382586958712E-01 -1.9937983520572E-02
12  1.1000000000000E-01  4.9773736984531E-01 -2.2840561197087E-02
13  1.2000000000000E-01  5.4121632936561E-01 -2.5953810379682E-02
14  1.3000000000000E-01  5.8421827805929E-01 -2.9275771781503E-02
15  1.4000000000000E-01  6.2669764545558E-01 -3.2799658984552E-02
16  1.5000000000000E-01  6.6860776454771E-01 -3.6513723972129E-02
17  1.6000000000000E-01  7.0990089555712E-01 -4.0401178474607E-02
18  1.7000000000000E-01  7.5052827005449E-01 -4.4440172359160E-02
19  1.8000000000000E-01  7.9044015566589E-01 -4.8603829709152E-02
20  1.9000000000000E-01  8.2958594137788E-01 -5.2860342643837E-02
21  2.0000000000000E-01  8.6791424323924E-01 -5.7173122330577E-02
22  2.1000000000000E-01  9.0537303004063E-01 -6.1501006044764E-02
23  2.2000000000000E-01  9.4190976833896E-01 -6.5798518543574E-02
24  2.3000000000000E-01  9.7747158598332E-01 -7.0016185444113E-02
25  2.4000000000000E-01  1.0120054530949E+00 -7.4100895740280E-02
26  2.5000000000000E-01  1.0454583792570E+00 -7.7996310061367E-02
27  2.6000000000000E-01  1.0777776254860E+00 -8.1643310774599E-02
28  2.7000000000000E-01  1.1089109293775E+00 -8.4980489568662E-02
29  2.8000000000000E-01  1.1388067416646E+00 -8.7944667730735E-02
30  2.9000000000000E-01  1.1674144722762E+00 -9.0471443950368E-02
31  3.0000000000000E-01  1.1946847438562E+00 -9.2495764153939E-02
32  3.1000000000000E-01  1.2205696505951E+00 -9.3952507597107E-02
33  3.2000000000000E-01  1.2450230201310E+00 -9.4777083223308E-02
34  3.3000000000000E-01  1.2680006762099E+00 -9.4906030136679E-02
35  3.4000000000000E-01  1.2894606997452E+00 -9.4277615939739E-02
36  3.5000000000000E-01  1.3093636858871E+00 -9.2832426652596E-02
37  3.6000000000000E-01  1.3276729947129E+00 -9.0513941961023E-02
38  3.7000000000000E-01  1.3443549931638E+00 -8.7269089637532E-02
39  3.8000000000000E-01  1.3593792858980E+00 -8.3048773140985E-02
40  3.9000000000000E-01  1.3727189327959E+00 -7.7808366627141E-02
41  4.0000000000000E-01  1.3843506509377E+00 -7.1508171892006E-02
42  4.1000000000000E-01  1.3942549989884E+00 -6.4113832120401E-02
43  4.2000000000000E-01  1.4024165420522E+00 -5.5596697722019E-02
44  4.3000000000000E-01  1.4088239952125E+00 -4.5934140000762E-02
45  4.4000000000000E-01  1.4134703441450E+00 -3.5109808919260E-02
46  4.5000000000000E-01  1.4163529413794E+00 -2.3113831781790E-02
47  4.6000000000000E-01  1.4174735769893E+00 -9.9429502625672E-03
48  4.7000000000000E-01  1.4168385227132E+00  4.3994061547903E-03
49  4.8000000000000E-01  1.4144585487375E+00  1.9903111591914E-02
50  4.9000000000000E-01  1.4103489126166E+00  3.6551400618171E-02
51  5.0000000000000E-01  1.4045293200579E+00  5.4320990386216E-02
52  5.1000000000000E-01  1.3970238575525E+00  7.3182267209205E-02
53  5.2000000000000E-01  1.3878608970955E+00  9.3099536009068E-02
54  5.3000000000000E-01  1.3770729734996E+00  1.1403133035317E-01
55  5.4000000000000E-01  1.3646966350650E+00  1.3593078009683E-01
56  5.5000000000000E-01  1.3507722686254E+00  1.5874603297206E-01
57  5.6000000000000E-01  1.3353439002365E+00  1.8242072581392E-01
58  5.7000000000000E-01  1.3184589730134E+00  2.0689450050302E-01
59  5.8000000000000E-01  1.3001681038528E+00  2.3210355913439E-01
60  5.9000000000000E-01  1.2805248209865E+00  2.5798125240423E-01
61  6.0000000000000E-01  1.2595852845120E+00  2.8445869474422E-01
62  6.1000000000000E-01  1.2374079922232E+00  3.1146539933530E-01
63  6.2000000000000E-01  1.2140534732243E+00  3.3892992580179E-01
64  6.3000000000000E-01  1.1895839719432E+00  3.6678053313059E-01
65  6.4000000000000E-01  1.1640631252743E+00  3.9494583018001E-01
66  6.5000000000000E-01  1.1375556356671E+00  4.2335541604499E-01
67  6.6000000000000E-01  1.1101269430357E+00  4.5194050252945E-01
68  6.7000000000000E-01  1.0818428983983E+00  4.8063451104717E-01
69  6.8000000000000E-01  1.0527694421602E+00  5.0937363642897E-01
70  6.9000000000000E-01  1.0229722899288E+00  5.3809737035634E-01
71  7.0000000000000E-01  9.9251662869904E-01  5.6674897747006E-01
72  7.1000000000000E-01  9.6146682616403E-01  5.9527591761413E-01
73  7.2000000000000E-01  9.2988615580122E-01  6.2363020816822E-01
74  7.3000000000000E-01  8.9783654024465E-01  6.5176872099265E-01
75  7.4000000000000E-01  8.6537831529528E-01  6.7965340915331E-01
76  7.5000000000000E-01  8.3257001673324E-01  7.0725145930623E-01
77  7.6000000000000E-01  7.9946819188644E-01  7.3453536639519E-01
78  7.7000000000000E-01  7.6612723767808E-01  7.6148292814584E-01
79  7.8000000000000E-01  7.3259926662441E-01  7.8807715771701E-01
80  7.9000000000000E-01  6.9893400198467E-01  8.1430611378920E-01
81  8.0000000000000E-01  6.6517870298097E-01  8.4016264831996E-01
82  8.1000000000000E-01  6.3137812070790E-01  8.6564407317108E-01
83  8.2000000000000E-01  5.9757448504375E-01  8.9075174780033E-01
84  8.3000000000000E-01  5.6380752255889E-01  9.1549059120561E-01
85  8.4000000000000E-01  5.3011450509541E-01  9.3986852229927E-01
86  8.5000000000000E-01  4.9653032836743E-01  9.6389583386781E-01
87  8.6000000000000E-01  4.6308761960742E-01  9.8758450622707E-01
88  8.7000000000000E-01  4.2981687296123E-01  1.0109474676065E+00
89  8.8000000000000E-01  3.9674661101796E-01  1.0339978091793E+00
90  8.9000000000000E-01  3.6390357055062E-01  1.0567479634895E+00
91  9.0000000000000E-01  3.3131291024411E-01  1.0792088558040E+00
92  9.1000000000000E-01  2.9899843789903E-01  1.1013890386318E+00
93  9.2000000000000E-01  2.6698285432665E-01  1.1232938202905E+00
94  9.3000000000000E-01  2.3528801089320E-01  1.1449243989638E+00
95  9.4000000000000E-01  2.0393517743307E-01  1.1662770141689E+00
96  9.5000000000000E-01  1.7294531703179E-01  1.1873421279377E+00
97  9.6000000000000E-01  1.4233936398344E-01  1.2081036483019E+00
98  9.7000000000000E-01  1.1213850105416E-01  1.2285382078605E+00
99  9.8000000000000E-01  8.2364432035872E-02  1.2486145102832E+00
100  9.9000000000000E-01  5.3039645454253E-02  1.2682927575722E+00
101  1.0000000000000E+00  2.4187665202787E-02  1.2875241707532E+00
102  1.0100000000000E+00 -4.1667161859907E-03  1.3062506163953E+00
103  1.0200000000000E+00 -3.1997225950221E-02  1.3244043509628E+00
104  1.0300000000000E+00 -5.9275925501937E-02  1.3419078944728E+00
105  1.0400000000000E+00 -8.5973055094128E-02  1.3586740442658E+00
106  1.0500000000000E+00 -1.1205691294086E-01  1.3746060388887E+00
107  1.0600000000000E+00 -1.3749377285635E-01  1.3895978811305E+00
108  1.0700000000000E+00 -1.6224784431012E-01  1.4035348281310E+00
109  1.0800000000000E+00 -1.8628127857854E-01  1.4162940552009E+00
110  1.0900000000000E+00 -2.0955422440146E-01  1.4277454985214E+00
111  1.1000000000000E+00 -2.3202493622527E-01  1.4377528802428E+00
112  1.1100000000000E+00 -2.5364993772103E-01  1.4461749176361E+00
113  1.1200000000000E+00 -2.7438424280618E-01  1.4528667158750E+00
114  1.1300000000000E+00 -2.9418163586086E-01  1.4576813417031E+00
115  1.1400000000000E+00 -3.1299501221003E-01  1.4604715726688E+00
116  1.1500000000000E+00 -3.3077677923054E-01  1.4610918137492E+00
117  1.1600000000000E+00 -3.4747931763056E-01  1.4594001700261E+00
118  1.1700000000000E+00 -3.6305550152524E-01  1.4552606605816E+00
119  1.1800000000000E+00 -3.7745927489144E-01  1.4485455549356E+00
120  1.1900000000000E+00 -3.9064628080527E-01  1.4391378090914E+00
121  1.2000000000000E+00 -4.0257453855297E-01  1.4269335736090E+00
122  1.2100000000000E+00 -4.1320516222121E-01  1.4118447409693E+00
123  1.2200000000000E+00 -4.2250311273483E-01  1.3938014938959E+00
124  1.2300000000000E+00 -4.3043797347197E-01  1.3727548101134E+00
125  1.2400000000000E+00 -4.3698473755632E-01  1.3486788722782E+00
126  1.2500000000000E+00 -4.4212459268608E-01  1.3215733244658E+00
127  1.2600000000000E+00 -4.4584568687072E-01  1.2914653085208E+00
128  1.2700000000000E+00 -4.4814385572898E-01  1.2584112048377E+00
129  1.2800000000000E+00 -4.4902328901168E-01  1.2224979926109E+00
130  1.2900000000000E+00 -4.4849711072976E-01  1.1838441342094E+00
131  1.3000000000000E+00 -4.4658784370051E-01  1.1425998771250E+00
132  1.3100000000000E+00 -4.4332772543414E-01  1.0989468547989E+00
133  1.3200000000000E+00 -4.3875883803732E-01  1.0530968544438E+00
134  1.3300000000000E+00 -4.3293301022130E-01  1.0052896058050E+00
135  1.3400000000000E+00 -4.2591144454657E-01  9.5578942954710E-01
136  1.3500000000000E+00 -4.1776401764220E-01  9.0488056741827E-01
137  1.3600000000000E+00 -4.0856819536206E-01  8.5286099868722E-01
138  1.3700000000000E+00 -3.9840749858870E-01  8.0003452829302E-01
139  1.3800000000000E+00 -3.8736944872578E-01  7.4670091185885E-01
140  1.3900000000000E+00 -3.7554291426999E-01  6.9314375855975E-01
141  1.4000000000000E+00 -3.6301477989425E-01  6.3961597068233E-01
142  1.4100000000000E+00 -3.4986578874380E-01  5.8632211815046E-01
143  1.4200000000000E+00 -3.3616737168349E-01  5.3340754239872E-01
144  1.4300000000000E+00 -3.2198701677972E-01  4.8099239964386E-01
145  1.4400000000000E+00 -3.0739333454357E-01  4.2920067136277E-01
146  1.4500000000000E+00 -2.9245587595352E-01  3.7815996082652E-01
147  1.4600000000000E+00 -2.7724483453469E-01  3.2800071824497E-01
148  1.4700000000000E+00 -2.6183069960373E-01  2.7885522891229E-01
149  1.4800000000000E+00 -2.4628389579878E-01  2.3085655710684E-01
150  1.4900000000000E+00 -2.3067441329328E-01  1.8413746123890E-01
151  1.5000000000000E+00 -2.1507143049864E-01  1.3882928292427E-01
152  1.5100000000000E+00 -1.9954293274112E-01  9.5060821026636E-02
153  1.5200000000000E+00 -1.8415533115246E-01  5.2957205182772E-02
154  1.5300000000000E+00 -1.6897308363530E-01  1.2638771839938E-02
155  1.5400000000000E+00 -1.5405832278486E-01 -2.5780039760924E-02
156  1.5500000000000E+00 -1.3947049357083E-01 -6.2191764133609E-02
157  1.5600000000000E+00 -1.2526600442407E-01 -9.6496947018346E-02
158  1.5700000000000E+00 -1.1149789505931E-01 -1.2860513352521E-01
159  1.5800000000000E+00 -9.8215524317011E-02 -1.5843579674823E-01
160  1.5900000000000E+00 -8.5464281135953E-02 -1.8591919721322E-01
161  1.6000000000000E+00 -7.3285321602066E-02 -2.1099716401936E-01
162  1.6100000000000E+00 -6.1715334827936E-02 -2.3362378910212E-01
163  1.6200000000000E+00 -5.0786340154633E-02 -2.5376602688852E-01
164  1.6300000000000E+00 -4.0525517925860E-02 -2.7140419233371E-01
165  1.6400000000000E+00 -3.0955075793507E-02 -2.8653235122952E-01
166  1.6500000000000E+00 -2.2092152197777E-02 -2.9915859765837E-01
167  1.6600000000000E+00 -1.3948758342412E-02 -3.0930521445372E-01
168  1.6700000000000E+00 -6.5317596369066E-03 -3.1700871360983E-01
169  1.6800000000000E+00  1.5710276774729E-04 -3.2231975463832E-01
170  1.6900000000000E+00  6.1211501111012E-03 -3.2530294008728E-01
171  1.7000000000000E+00  1.1368663938769E-02 -3.2603648851653E-01
172  1.7100000000000E+00  1.5912744289864E-02 -3.2461178637372E-01
173  1.7200000000000E+00  1.9771129047334E-02 -3.2113282148402E-01
174  1.7300000000000E+00  2.2965975590265E-02 -3.1571550154354E-01
175  1.7400000000000E+00  2.5523606822870E-02 -3.0848686431848E-01
176  1.7500000000000E+00  2.7474222073265E-02 -2.9958417996550E-01
177  1.7600000000000E+00  2.8851577378539E-02 -2.8915396100030E-01
178  1.7700000000000E+00  2.9692636737610E-02 -2.7735088402394E-01
179  1.7800000000000E+00  3.0037194822441E-02 -2.6433662293732E-01
180  1.7900000000000E+00  2.9927479110855E-02 -2.5027862169656E-01
181  1.8000000000000E+00  2.9407730609700E-02 -2.3534880094746E-01
182  1.8100000000000E+00  2.8523768771409E-02 -2.1972221726666E-01
183  1.8200000000000E+00  2.7322543791158E-02 -2.0357568440396E-01
184  1.8300000000000E+00  2.5851680261078E-02 -1.8708636882894E-01
185  1.8400000000000E+00  2.4159016141692E-02 -1.7043037175464E-01
186  1.8500000000000E+00  2.2292141113163E-02 -1.5378131015164E-01
187  1.8600000000000E+00  2.0297938369941E-02 -1.3730890925646E-01
188  1.8700000000000E+00  1.8222135467509E-02 -1.2117762347454E-01
189  1.8800000000000E+00  1.6108853078236E-02 -1.0554525526356E-01
190  1.8900000000000E+00  1.4000216664281E-02 -9.0561754990107E-02
191  1.9000000000000E+00  1.1935908213092E-02 -7.6367865469161E-02
192  1.9100000000000E+00  9.9521096540462E-03 -6.3092025699985E-02
193  1.9200000000000E+00  8.0807333823154E-03 -5.0848046489273E-02
194  1.9300000000000E+00  6.3527502618414E-03 -3.9744508040730E-02
195  1.9400000000000E+00  4.7955311513775E-03 -2.9877273829125E-02
196  1.9500000000000E+00  3.4321807027997E-03 -2.1327546751977E-02
197  1.9600000000000E+00  2.2814206107179E-03 -1.4161473566257E-02
198  1.9700000000000E+00  1.3575711894884E-03 -8.4306493784978E-03
199  1.9800000000000E+00  6.6950878528672E-04 -4.1659352002264E-03
200  1.9900000000000E+00  2.2128688324877E-04 -1.3817311669122E-03
201  2.0000000000000E+00  2.4098694220376E-05 -1.5129807625352E-04
202  2.0100000000000E+00 -7.5548634333917E-06  4.7517358286496E-05
203  2.0200000000000E+00  2.3871730025707E-06 -1.4964892391158E-05
204  2.03 -0.  0.
205  2.04 -0.  0.
206  2.05 -0. -0.
207  2.06  0.  0.
208  2.07  0.  0.
209  2.08  0.  0.
210  2.09  0.  0.
211  2.10  0.  0.
212  2.11  0.  0.
213  2.12  0.  0.
214  2.13  0.  0.
215  2.14  0.  0.
216  2.15  0.  0.
217  2.16  0.  0.
218  2.17  0.  0.
219  2.18  0.  0.
220  2.19  0.  0.
221  2.20  0.  0.
222  2.21  0.  0.
223  2.22  0.  0.
224  2.23  0.  0.
225  2.24  0.  0.
226  2.25  0.  0.
227  2.26  0.  0.
228  2.27  0.  0.
229  2.28  0.  0.
230  2.29  0.  0.
231  2.30  0.  0.
232  2.31  0.  0.
233  2.32  0.  0.
234  2.33  0.  0.
235  2.34  0.  0.
236  2.35  0.  0.
237  2.36  0.  0.
238  2.37  0.  0.
239  2.38  0.  0.
240  2.39  0.  0.
241  2.40  0.  0.
242  2.41  0.  0.
243  2.42  0.  0.
244  2.43  0.  0.
245  2.44  0.  0.
246  2.45  0.  0.
247  2.46  0.  0.
248  2.47  0.  0.
249  2.48  0.  0.
250  2.49  0.  0.
251  2.50  0.  0.
252  2.51  0.  0.
253  2.52  0.  0.
254  2.53  0.  0.
255  2.54  0.  0.
256  2.55  0.  0.
257  2.56  0.  0.
258  2.57  0.  0.
259  2.58  0.  0.
260  2.59  0.  0.
261  2.60  0.  0.
262  2.61  0.  0.
263  2.62  0.  0.
264  2.63  0.  0.
265  2.64  0.  0.
266  2.65  0.  0.
267  2.66  0.  0.
268  2.67  0.  0.
269  2.68  0.  0.
270  2.69  0.  0.
271  2.70  0.  0.
272  2.71  0.  0.
273  2.72  0.  0.
274  2.73  0.  0.
275  2.74  0.  0.
276  2.75  0.  0.
277  2.76  0.  0.
278  2.77  0.  0.
279  2.78  0.  0.
280  2.79  0.  0.
281  2.80  0.  0.
282  2.81  0.  0.
283  2.82  0.  0.
284  2.83  0.  0.
285  2.84  0.  0.
286  2.85  0.  0.
287  2.86  0.  0.
288  2.87  0.  0.
289  2.88  0.  0.
290  2.89  0.  0.
291  2.90  0.  0.
292  2.91  0.  0.
293  2.92  0.  0.
294  2.93  0.  0.
295  2.94  0.  0.
296  2.95  0.  0.
297  2.96  0.  0.
298  2.97  0.  0.
299  2.98  0.  0.
300  2.99  0.  0.
301  3.00  0.  0.
302  3.01  0.  0.
303  3.02  0.  0.
304  3.03  0.  0.
305  3.04  0.  0.
306  3.05  0.  0.
307  3.06  0.  0.
308  3.07  0.  0.
309  3.08  0.  0.
310  3.09  0.  0.
311  3.10  0.  0.
312  3.11  0.  0.
313  3.12  0.  0.
314  3.13  0.  0.
315  3.14  0.  0.
316  3.15  0.  0.
317  3.16  0.  0.
318  3.17  0.  0.
319  3.18  0.  0.
320  3.19  0.  0.
321  3.20  0.  0.
322  3.21  0.  0.
323  3.22  0.  0.
324  3.23  0.  0.
325  3.24  0.  0.
326  3.25  0.  0.
327  3.26  0.  0.
328  3.27  0.  0.
329  3.28  0.  0.
330  3.29  0.  0.
331  3.30  0.  0.
332  3.31  0.  0.
333  3.32  0.  0.
334  3.33  0.  0.
335  3.34  0.  0.
336  3.35  0.  0.
337  3.36  0.  0.
338  3.37  0.  0.
339  3.38  0.  0.
340  3.39  0.  0.
341  3.40  0.  0.
342  3.41  0.  0.
343  3.42  0.  0.
344  3.43  0.  0.
345  3.44  0.  0.
346  3.45  0.  0.
347  3.46  0.  0.
348  3.47  0.  0.
349  3.48  0.  0.
350  3.49  0.  0.
351  3.50  0.  0.
352  3.51  0.  0.
353  3.52  0.  0.
354  3.53  0.  0.
355  3.54  0.  0.
356  3.55  0.  0.
357  3.56  0.  0.
358  3.57  0.  0.
359  3.58  0.  0.
360  3.59  0.  0.
361  3.60  0.  0.
362  3.61  0.  0.
363  3.62  0.  0.
364  3.63  0.  0.
365  3.64  0.  0.
366  3.65  0.  0.
367  3.66  0.  0.
368  3.67  0.  0.
369  3.68  0.  0.
370  3.69  0.  0.
371  3.70  0.  0.
372  3.71  0.  0.
373  3.72  0.  0.
374  3.73  0.  0.
375  3.74  0.  0.
376  3.75  0.  0.
377  3.76  0.  0.
378  3.77  0.  0.
379  3.78  0.  0.
380  3.79  0.  0.
381  3.80  0.  0.
382  3.81  0.  0.
383  3.82  0.  0.
384  3.83  0.  0.
385  3.84  0.  0.
386  3.85  0.  0.
387  3.86  0.  0.
388  3.87  0.  0.
389  3.88  0.  0.
390  3.89  0.  0.
391  3.90  0.  0.
392  3.91  0.  0.
393  3.92  0.  0.
394  3.93  0.  0.
395  3.94  0.  0.
396  3.95  0.  0.
397  3.96  0.  0.
398  3.97  0.  0.
399  3.98  0.  0.
400  3.99  0.  0.
401  4.00  0.  0.
402  4.01  0.  0.
403  4.02  0.  0.
404  4.03  0.  0.
405  4.04  0.  0.
406  4.05  0.  0.
407  4.06  0.  0.
408  4.07  0.  0.
409  4.08  0.  0.
410  4.09  0.  0.
411  4.10  0.  0.
412  4.11  0.  0.
413  4.12  0.  0.
414  4.13  0.  0.
415  4.14  0.  0.
416  4.15  0.  0.
417  4.16  0.  0.
418  4.17  0.  0.
419  4.18  0.  0.
420  4.19  0.  0.
421  4.20  0.  0.
422  4.21  0.  0.
423  4.22  0.  0.
424  4.23  0.  0.
425  4.24  0.  0.
426  4.25  0.  0.
427  4.26  0.  0.
428  4.27  0.  0.
429  4.28  0.  0.
430  4.29  0.  0.
431  4.30  0.  0.
432  4.31  0.  0.
433  4.32  0.  0.
434  4.33  0.  0.
435  4.34  0.  0.
436  4.35  0.  0.
437  4.36  0.  0.
438  4.37  0.  0.
439  4.38  0.  0.
440  4.39  0.  0.
441  4.40  0.  0.
442  4.41  0.  0.
443  4.42  0.  0.
444  4.43  0.  0.
445  4.44  0.  0.
446  4.45  0.  0.
447  4.46  0.  0.
448  4.47  0.  0.
449  4.48  0.  0.
450  4.49  0.  0.
451  4.50  0.  0.
452  4.51  0.  0.
453  4.52  0.  0.
454  4.53  0.  0.
455  4.54  0.  0.
456  4.55  0.  0.
457  4.56  0.  0.
458  4.57  0.  0.
459  4.58  0.  0.
460  4.59  0.  0.
461  4.60  0.  0.
462  4.61  0.  0.
463  4.62  0.  0.
464  4.63  0.  0.
465  4.64  0.  0.
466  4.65  0.  0.
467  4.66  0.  0.
468  4.67  0.  0.
469  4.68  0.  0.
470  4.69  0.  0.
471  4.70  0.  0.
472  4.71  0.  0.
473  4.72  0.  0.
474  4.73  0.  0.
475  4.74  0.  0.
476  4.75  0.  0.
477  4.76  0.  0.
478  4.77  0.  0.
479  4.78  0.  0.
480  4.79  0.  0.
481  4.80  0.  0.
482  4.81  0.  0.
483  4.82  0.  0.
484  4.83  0.  0.
485  4.84  0.  0.
486  4.85  0.  0.
487  4.86  0.  0.
488  4.87  0.  0.
489  4.88  0.  0.
490  4.89  0.  0.
491  4.90  0.  0.
492  4.91  0.  0.
493  4.92  0.  0.
494  4.93  0.  0.
495  4.94  0.  0.
496  4.95  0.  0.
497  4.96  0.  0.
498  4.97  0.  0.
499  4.98  0.  0.
500  4.99  0.  0.
501  5.00  0.  0.
502  5.01  0.  0.
503  5.02  0.  0.
504  5.03  0.  0.
505  5.04  0.  0.
506  5.05  0.  0.
507  5.06  0.  0.
508  5.07  0.  0.
509  5.08  0.  0.
510  5.09  0.  0.
511  5.10  0.  0.
512  5.11  0.  0.
513  5.12  0.  0.
514  5.13  0.  0.
515  5.14  0.  0.
516  5.15  0.  0.
517  5.16  0.  0.
518  5.17  0.  0.
519  5.18  0.  0.
520  5.19  0.  0.
521  5.20  0.  0.
522  5.21  0.  0.
523  5.22  0.  0.
524  5.23  0.  0.
525  5.24  0.  0.
526  5.25  0.  0.
527  5.26  0.  0.
528  5.27  0.  0.
529  5.28  0.  0.
530  5.29  0.  0.
531  5.30  0.  0.
532  5.31  0.  0.
533  5.32  0.  0.
534  5.33  0.  0.
535  5.34  0.  0.
536  5.35  0.  0.
537  5.36  0.  0.
538  5.37  0.  0.
539  5.38  0.  0.
540  5.39  0.  0.
541  5.40  0.  0.
542  5.41  0.  0.
543  5.42  0.  0.
544  5.43  0.  0.
545  5.44  0.  0.
546  5.45  0.  0.
547  5.46  0.  0.
548  5.47  0.  0.
549  5.48  0.  0.
550  5.49  0.  0.
551  5.50  0.  0.
552  5.51  0.  0.
553  5.52  0.  0.
554  5.53  0.  0.
555  5.54  0.  0.
556  5.55  0.  0.
557  5.56  0.  0.
558  5.57  0.  0.
559  5.58  0.  0.
560  5.59  0.  0.
561  5.60  0.  0.
562  5.61  0.  0.
563  5.62  0.  0.
564  5.63  0.  0.
565  5.64  0.  0.
566  5.65  0.  0.
567  5.66  0.  0.
568  5.67  0.  0.
569  5.68  0.  0.
570  5.69  0.  0.
571  5.70  0.  0.
572  5.71  0.  0.
573  5.72  0.  0.
574  5.73  0.  0.
575  5.74  0.  0.
576  5.75  0.  0.
577  5.76  0.  0.
578  5.77  0.  0.
579  5.78  0.  0.
580  5.79  0.  0.
581  5.80  0.  0.
582  5.81  0.  0.
583  5.82  0.  0.
584  5.83  0.  0.
585  5.84  0.  0.
586  5.85  0.  0.
587  5.86  0.  0.
588  5.87  0.  0.
589  5.88  0.  0.
590  5.89  0.  0.
591  5.90  0.  0.
592  5.91  0.  0.
593  5.92  0.  0.
594  5.93  0.  0.
595  5.94  0.  0.
596  5.95  0.  0.
597  5.96  0.  0.
598  5.97  0.  0.
599  5.98  0.  0.
600  5.99  0.  0.
1                         6.2494681666749E+00  5.4955880448469E-01
1  0.0000000000000E+00 -4.4045771196988E-10  3.6572105066579E-10
2  1.0000000000000E-02  1.2202631775269E-03 -8.1168898932190E-04
3  2.0000000000000E-02  4.8773502723937E-03 -3.2399335866854E-03
4  3.0000000000000E-02  1.0960156195789E-02 -7.2643039011151E-03
5  4.0000000000000E-02  1.9450180163383E-02 -1.2850874523208E-02
6  5.0000000000000E-02  3.0321538221731E-02 -1.9952412305606E-02
7  6.0000000000000E-02  4.3540982718457E-02 -2.8508641518097E-02
8  7.0000000000000E-02  5.9067930582886E-02 -3.8446588471773E-02
9  8.0000000000000E-02  7.6854502724316E-02 -4.9681008072383E-02
10  9.0000000000000E-02  9.6845577228380E-02 -6.2114894961281E-02
11  1.0000000000000E-01  1.1897885932685E-01 -7.5640081908275E-02
12  1.1000000000000E-01  1.4318497132256E-01 -9.0137927911632E-02
13  1.2000000000000E-01  1.6938756576121E-01 -1.0548009802154E-01
14  1.3000000000000E-01  1.9750346514979E-01 -1.2152943622638E-01
15  1.4000000000000E-01  2.2744283142445E-01 -1.3814093182475E-01
16  1.5000000000000E-01  2.5910936816715E-01 -1.5516277855617E-01
17  1.6000000000000E-01  2.9240055826374E-01 -1.7243752439487E-01
18  1.7000000000000E-01  3.2720793928805E-01 -1.8980330834309E-01
19  1.8000000000000E-01  3.6341741839664E-01 -2.0709517882326E-01
20  1.9000000000000E-01  4.0090962793365E-01 -2.2414648639489E-01
21  2.0000000000000E-01  4.3956032228752E-01 -2.4079034155416E-01
22  2.1000000000000E-01  4.7924081582361E-01 -2.5686112635687E-01
23  2.2000000000000E-01  5.1981846095389E-01 -2.7219604658823E-01
24  2.3000000000000E-01  5.6115716461345E-01 -2.8663670923957E-01
25  2.4000000000000E-01  6.0311794061056E-01 -3.0003070819620E-01
26  2.5000000000000E-01  6.4555949452033E-01 -3.1223319934816E-01
27  2.6000000000000E-01  6.8833883702060E-01 -3.2310844486109E-01
28  2.7000000000000E-01  7.3131192083996E-01 -3.3253130513988E-01
29  2.8000000000000E-01  7.7433429582034E-01 -3.4038865613334E-01
30  2.9000000000000E-01  8.1726177600670E-01 -3.4658070910766E-01
31  3.0000000000000E-01  8.5995111218006E-01 -3.5102220989838E-01
32  3.1000000000000E-01  9.0226066286152E-01 -3.5364349496783E-01
33  3.2000000000000E-01  9.4405105654584E-01 -3.5439138236959E-01
34  3.3000000000000E-01  9.8518583778377E-01 -3.5322987696941E-01
35  3.4000000000000E-01  1.0255320897300E+00 -3.5014067099737E-01
36  3.5000000000000E-01  1.0649610259124E+00 -3.4512342320440E-01
37  3.6000000000000E-01  1.1033485442612E+00 -3.3819580255130E-01
38  3.7000000000000E-01  1.1405757368605E+00 -3.2939328544451E-01
39  3.8000000000000E-01  1.1765293494474E+00 -3.1876869901290E-01
40  3.9000000000000E-01  1.2111021853772E+00 -3.0639150674657E-01
41  4.0000000000000E-01  1.2441934495835E+00 -2.9234683693658E-01
42  4.1000000000000E-01  1.2757090289866E+00 -2.7673425869689E-01
43  4.2000000000000E-01  1.3055617068101E+00 -2.5966631484453E-01
44  4.3000000000000E-01  1.3336713093542E+00 -2.4126682548079E-01
45  4.4000000000000E-01  1.3599647849104E+00 -2.2166898067006E-01
46  4.5000000000000E-01  1.3843762156741E+00 -2.0101324506546E-01
47  4.6000000000000E-01  1.4068467646892E+00 -1.7944510159017E-01
48  4.7000000000000E-01  1.4273245610227E+00 -1.5711266526042E-01
49  4.8000000000000E-01  1.4457645274951E+00 -1.3416420184007E-01
50  4.9000000000000E-01  1.4621281563501E+00 -1.1074558916207E-01
51  5.0000000000000E-01  1.4763832392270E+00 -8.6997761559311E-02
52  5.1000000000000E-01  1.4885035586663E+00 -6.3054179840500E-02
53  5.2000000000000E-01  1.4984685491158E+00 -3.9038370564643E-02
54  5.3000000000000E-01  1.5062629359999E+00 -1.5061578953977E-02
55  5.4000000000000E-01  1.5118763618415E+00  8.7794204012182E-03
56  5.5000000000000E-01  1.5153030086811E+00  3.2404311879415E-02
57  5.6000000000000E-01  1.5165412261028E+00  5.5750984842268E-02
58  5.7000000000000E-01  1.5155931740574E+00  7.8776998580150E-02
59  5.8000000000000E-01  1.5124644893503E+00  1.0146073085556E-01
60  5.9000000000000E-01  1.5071639841563E+00  1.2380217889176E-01
61  6.0000000000000E-01  1.4997033842246E+00  1.4582338654825E-01
62  6.1000000000000E-01  1.4900971135639E+00  1.6756847697384E-01
63  6.2000000000000E-01  1.4783621313604E+00  1.8910327614864E-01
64  6.3000000000000E-01  1.4645178256982E+00  2.1051451932923E-01
65  6.4000000000000E-01  1.4485859673422E+00  2.3190863938996E-01
66  6.5000000000000E-01  1.4305907254310E+00  2.5341014329268E-01
67  6.6000000000000E-01  1.4105587454411E+00  2.7515959029218E-01
68  6.7000000000000E-01  1.3885192882522E+00  2.9731119286578E-01
69  6.8000000000000E-01  1.3645044275890E+00  3.2003006860466E-01
70  6.9000000000000E-01  1.3385493015875E+00  3.4348917828673E-01
71  7.0000000000000E-01  1.3106924127403E+00  3.6786599192858E-01
72  7.1000000000000E-01  1.2809759690765E+00  3.9333893065312E-01
73  7.2000000000000E-01  1.2494462581301E+00  4.2008363758545E-01
74  7.3000000000000E-01  1.2161540441019E+00  4.4826913558126E-01
75  7.4000000000000E-01  1.1811549776319E+00  4.7805393329518E-01
76  7.5000000000000E-01  1.1445100068086E+00  5.0958214381617E-01
77  7.6000000000000E-01  1.1062857774677E+00  5.4297968175890E-01
78  7.7000000000000E-01  1.0665550104871E+00  5.7835060524124E-01
79  7.8000000000000E-01  1.0253968436948E+00  6.1577366856372E-01
80  7.9000000000000E-01  9.8289712616202E-01  6.5529914961608E-01
81  8.0000000000000E-01  9.3914865308012E-01  6.9694601307260E-01
82  8.1000000000000E-01  8.9425133009232E-01  7.4069946632984E-01
83  8.2000000000000E-01  8.4831225688695E-01  7.8650895993474E-01
84  8.3000000000000E-01  8.0144572102462E-01  8.3428667801889E-01
85  8.4000000000000E-01  7.5377309436376E-01  8.8390655709100E-01
86  8.5000000000000E-01  7.0542262603938E-01  9.3520386355215E-01
87  8.6000000000000E-01  6.5652912771130E-01  9.8797535162312E-01
88  8.7000000000000E-01  6.0723354870114E-01  1.0419800141552E+00
89  8.8000000000000E-01  5.5768244064511E-01  1.0969404291950E+00
90  8.9000000000000E-01  5.0802731336414E-01  1.1525446953661E+00
91  9.0000000000000E-01  4.5842388575424E-01  1.2084489392907E+00
92  9.1000000000000E-01  4.0903123758412E-01  1.2642803685947E+00
93  9.2000000000000E-01  3.6001087011294E-01  1.3196408346923E+00
94  9.3000000000000E-01  3.1152568536360E-01  1.3741108607330E+00
95  9.4000000000000E-01  2.6373889566508E-01  1.4272540819673E+00
96  9.5000000000000E-01  2.1681287667115E-01  1.4786220385352E+00
97  9.6000000000000E-01  1.7090797843364E-01  1.5277592544384E+00
98  9.7000000000000E-01  1.2618131022347E-01  1.5742085313686E+00
99  9.8000000000000E-01  8.2785515622342E-02  1.6175163822340E+00
100  9.9000000000000E-01  4.0867554927546E-02  1.6572385267599E+00
101  1.0000000000000E+00  5.6751210435721E-04  1.6929453704784E+00
102  1.0100000000000E+00 -3.7982556628083E-02  1.7242273888298E+00
103  1.0200000000000E+00 -7.4659715984663E-02  1.7507003399596E+00
104  1.0300000000000E+00 -1.0935117081904E-01  1.7720102330962E+00
105  1.0400000000000E+00 -1.4195519675868E-01  1.7878379840856E+00
106  1.0500000000000E+00 -1.7238196916728E-01  1.7979036956362E+00
107  1.0600000000000E+00 -2.0055427910916E-01  1.8019705069935E+00
108  1.0700000000000E+00 -2.2640812702604E-01  1.7998479659642E+00
109  1.0800000000000E+00 -2.4989318708883E-01  1.7913948852517E+00
110  1.0900000000000E+00 -2.7097313762060E-01  1.7765216547913E+00
111  1.1000000000000E+00 -2.8962585553184E-01  1.7551919918944E+00
112  1.1100000000000E+00 -3.0584347532815E-01  1.7274241213488E+00
113  1.1200000000000E+00 -3.1963231586254E-01  1.6932913878476E+00
114  1.1300000000000E+00 -3.3101268055591E-01  1.6529223130026E+00
115  1.1400000000000E+00 -3.4001853922285E-01  1.6065001184097E+00
116  1.1500000000000E+00 -3.4669710184449E-01  1.5542617444950E+00
117  1.1600000000000E+00 -3.5110829655270E-01  1.4964964018624E+00
118  1.1700000000000E+00 -3.5332416565318E-01  1.4335436972894E+00
119  1.1800000000000E+00 -3.5342819464353E-01  1.3657913800512E+00
120  1.1900000000000E+00 -3.5151458980259E-01  1.2936727556187E+00
121  1.2000000000000E+00 -3.4768751996571E-01  1.2176638126579E+00
122  1.2100000000000E+00 -3.4206033747877E-01  1.1382801053541E+00
123  1.2200000000000E+00 -3.3475479198852E-01  1.0560734261866E+00
124  1.2300000000000E+00 -3.2590024858943E-01  9.7162829401536E-01
125  1.2400000000000E+00 -3.1563291885833E-01  8.8555826854252E-01
126  1.2500000000000E+00 -3.0409510942255E-01  7.9850208468069E-01
127  1.2600000000000E+00 -2.9143448781379E-01  7.1111957865654E-01
128  1.2700000000000E+00 -2.7780335948179E-01  6.2408735191133E-01
129  1.2800000000000E+00 -2.6335794287859E-01  5.3809408861804E-01
130  1.2900000000000E+00 -2.4825762141483E-01  4.5383540767072E-01
131  1.3000000000000E+00 -2.3266414185556E-01  3.7200809042328E-01
132  1.3100000000000E+00 -2.1674071828407E-01  2.9330348092710E-01
133  1.3200000000000E+00 -2.0065098903328E-01  2.1839980558986E-01
134  1.3300000000000E+00 -1.8455776101816E-01  1.4795310429080E-01