Yb    ONCVPSP-4.0.1  r_core=   2.00372   1.60588   1.91009   1.40785
70.0000     24.0000      250707    zatom,zion,pspd
8      11   3     4   600     0    pspcod,pspxc,lmax,lloc,mmax,r2well
5.99000000 49.00000000  0.00000000    rchrg fchrg qchrg
2     2     2     2     0    nproj
1     1           extension_switch
0                         9.9663299452077E+00  1.6737683507493E-01
1  0.0000000000000E+00  5.6650961699489E-11 -4.8760134818693E-10
2  1.0000000000000E-02  5.5610163385699E-02  2.1131657348292E-02
3  2.0000000000000E-02  1.1115191087014E-01  4.2097884683516E-02
4  3.0000000000000E-02  1.6655679918573E-01  6.2734760585061E-02
5  4.0000000000000E-02  2.2175633179272E-01  8.2881366852886E-02
6  5.0000000000000E-02  2.7668193587995E-01  1.0238125533125E-01
7  6.0000000000000E-02  3.3126494368949E-01  1.2108387333590E-01
8  7.0000000000000E-02  3.8543657953950E-01  1.3884593446148E-01
9  8.0000000000000E-02  4.3912795386327E-01  1.5553272203342E-01
10  9.0000000000000E-02  4.9227006551202E-01  1.7101931307107E-01
11  1.0000000000000E-01  5.4479381348665E-01  1.8519171133984E-01
12  1.1000000000000E-01  5.9663001916869E-01  1.9794787888645E-01
13  1.2000000000000E-01  6.4770946001417E-01  2.0919865636424E-01
14  1.3000000000000E-01  6.9796291555779E-01  2.1886856345805E-01
15  1.4000000000000E-01  7.4732122644797E-01  2.2689647180426E-01
16  1.5000000000000E-01  7.9571536709861E-01  2.3323614395773E-01
17  1.6000000000000E-01  8.4307653240071E-01  2.3785663318032E-01
18  1.7000000000000E-01  8.8933623878820E-01  2.4074254009930E-01
19  1.8000000000000E-01  9.3442643979805E-01  2.4189412360225E-01
20  1.9000000000000E-01  9.7827965610691E-01  2.4132726468421E-01
21  2.0000000000000E-01  1.0208291198658E+00  2.3907328333272E-01
22  2.1000000000000E-01  1.0620089329924E+00  2.3517860991626E-01
23  2.2000000000000E-01  1.1017542389180E+00  2.2970431391612E-01
24  2.3000000000000E-01  1.1400014071279E+00  2.2272549420497E-01
25  2.4000000000000E-01  1.1766882296715E+00  2.1433053640823E-01
26  2.5000000000000E-01  1.2117541286712E+00  2.0462024418245E-01
27  2.6000000000000E-01  1.2451403737053E+00  1.9370685248935E-01
28  2.7000000000000E-01  1.2767903078014E+00  1.8171293213025E-01
29  2.8000000000000E-01  1.3066495806441E+00  1.6877019591638E-01
30  2.9000000000000E-01  1.3346663874736E+00  1.5501821788071E-01
31  3.0000000000000E-01  1.3607917120430E+00  1.4060307787169E-01
32  3.1000000000000E-01  1.3849795718949E+00  1.2567594470243E-01
33  3.2000000000000E-01  1.4071872641330E+00  1.1039161174999E-01
34  3.3000000000000E-01  1.4273756097852E+00  9.4906999501271E-02
35  3.4000000000000E-01  1.4455091947967E+00  7.9379640016181E-02
36  3.5000000000000E-01  1.4615566056417E+00  6.3966158620446E-02
37  3.6000000000000E-01  1.4754906575166E+00  4.8820768343708E-02
38  3.7000000000000E-01  1.4872886130601E+00  3.4093792676926E-02
39  3.8000000000000E-01  1.4969323895514E+00  1.9930232138687E-02
40  3.9000000000000E-01  1.5044087525574E+00  6.4683899039878E-03
41  4.0000000000000E-01  1.5097094940379E+00 -6.1614286350813E-03
42  4.1000000000000E-01  1.5128315929734E+00 -1.7838128039022E-02
43  4.2000000000000E-01  1.5137773566536E+00 -2.8450933066675E-02
44  4.3000000000000E-01  1.5125545408544E+00 -3.7900384165494E-02
45  4.4000000000000E-01  1.5091764472397E+00 -4.6099206344557E-02
46  4.5000000000000E-01  1.5036619964463E+00 -5.2973040669159E-02
47  4.6000000000000E-01  1.4960357754525E+00 -5.8461028849456E-02
48  4.7000000000000E-01  1.4863280579827E+00 -6.2516242748125E-02
49  4.8000000000000E-01  1.4745747968730E+00 -6.5105952099963E-02
50  4.9000000000000E-01  1.4608175875027E+00 -6.6211725304649E-02
51  5.0000000000000E-01  1.4451036015923E+00 -6.5829359814396E-02
52  5.1000000000000E-01  1.4274854908734E+00 -6.3968640379932E-02
53  5.2000000000000E-01  1.4080212603539E+00 -6.0652925221333E-02
54  5.3000000000000E-01  1.3867741111203E+00 -5.5918562048802E-02
55  5.4000000000000E-01  1.3638122528535E+00 -4.9814137751017E-02
56  5.5000000000000E-01  1.3392086864671E+00 -4.2399567482102E-02
57  5.6000000000000E-01  1.3130409575144E+00 -3.3745030793915E-02
58  5.7000000000000E-01  1.2853908812522E+00 -2.3929764363385E-02
59  5.8000000000000E-01  1.2563442404855E+00 -1.3040722733800E-02
60  5.9000000000000E-01  1.2259904575551E+00 -1.1711203090033E-03
61  6.0000000000000E-01  1.1944222420634E+00  1.1581130410172E-02
62  6.1000000000000E-01  1.1617352161552E+00  2.5115067696636E-02
63  6.2000000000000E-01  1.1280275193934E+00  3.9328398366845E-02
64  6.3000000000000E-01  1.0933993954717E+00  5.4119264815300E-02
65  6.4000000000000E-01  1.0579527632035E+00  6.9388040388946E-02
66  6.5000000000000E-01  1.0217907744071E+00  8.5039131058317E-02
67  6.6000000000000E-01  9.8501736147061E-01  1.0098276039647E-01
68  6.7000000000000E-01  9.4773677752682E-01  1.1713671412994E-01
69  6.8000000000000E-01  9.1005313229617E-01  1.3342801999503E-01
70  6.9000000000000E-01  8.7206992676049E-01  1.4979453832623E-01
71  7.0000000000000E-01  8.3388958991341E-01  1.6618643874060E-01
72  7.1000000000000E-01  7.9561302089192E-01  1.8256753847605E-01
73  7.2000000000000E-01  7.5733913982601E-01  1.9891647839852E-01
74  7.3000000000000E-01  7.1916445075025E-01  2.1522771342933E-01
75  7.4000000000000E-01  6.8118261989876E-01  2.3151229516176E-01
76  7.5000000000000E-01  6.4348407265603E-01  2.4779842574736E-01
77  7.6000000000000E-01  6.0615561235607E-01  2.6413176373403E-01
78  7.7000000000000E-01  5.6928006401444E-01  2.8057546444131E-01
79  7.8000000000000E-01  5.3293594593918E-01  2.9720993965278E-01
80  7.9000000000000E-01  4.9719717199864E-01  3.1413232389828E-01
81  8.0000000000000E-01  4.6213278712682E-01  3.3145563737658E-01
82  8.1000000000000E-01  4.2780673842074E-01  3.4930763862969E-01
83  8.2000000000000E-01  3.9427768392911E-01  3.6782936341084E-01
84  8.3000000000000E-01  3.6159884095046E-01  3.8717334977536E-01
85  8.4000000000000E-01  3.2981787535039E-01  4.0750155324979E-01
86  8.5000000000000E-01  2.9897683307530E-01  4.2898295998677E-01
87  8.6000000000000E-01  2.6911211468478E-01  4.5179091005750E-01
88  8.7000000000000E-01  2.4025449334840E-01  4.7610014745567E-01
89  8.8000000000000E-01  2.1242917635801E-01  5.0208361794926E-01
90  8.9000000000000E-01  1.8565590979580E-01  5.2990904059124E-01
91  9.0000000000000E-01  1.5994912557411E-01  5.5973528344964E-01
92  9.1000000000000E-01  1.3531812962837E-01  5.9170857889939E-01
93  9.2000000000000E-01  1.1176732960279E-01  6.2595861859593E-01
94  9.3000000000000E-01  8.9296499923569E-02  6.6259457296449E-01
95  9.4000000000000E-01  6.7901081708642E-02  7.0170108465371E-01
96  9.5000000000000E-01  4.7572514522420E-02  7.4333428984571E-01
97  9.6000000000000E-01  2.8298596550977E-02  7.8751792554026E-01
98  9.7000000000000E-01  1.0063869353145E-02  8.3423958486498E-01
99  9.8000000000000E-01 -7.1499770598466E-03  8.8344718604519E-01
100  9.9000000000000E-01 -2.3363683443929E-02  9.3504572381480E-01
101  1.0000000000000E+00 -3.8599989822201E-02  9.8889437469271E-01
102  1.0100000000000E+00 -5.2883198567361E-02  1.0448040295989E+00
103  1.0200000000000E+00 -6.6238737651263E-02  1.1025353286535E+00
104  1.0300000000000E+00 -7.8692729885506E-02  1.1617972735942E+00
105  1.0400000000000E+00 -9.0271574166427E-02  1.2222464929692E+00
106  1.0500000000000E+00 -1.0100154487168E-01  1.2834872339931E+00
107  1.0600000000000E+00 -1.1090841562718E-01  1.3450721525946E+00
108  1.0700000000000E+00 -1.2001711366639E-01  1.4065039696051E+00
109  1.0800000000000E+00 -1.2835141093148E-01  1.4672380561179E+00
110  1.0900000000000E+00 -1.3593365791062E-01  1.5266860046359E+00
111  1.1000000000000E+00 -1.4278456596115E-01  1.5842202346102E+00
112  1.1100000000000E+00 -1.4892304352540E-01  1.6391796711526E+00
113  1.1200000000000E+00 -1.5436609119807E-01  1.6908765239716E+00
114  1.1300000000000E+00 -1.5912876004189E-01  1.7386041797150E+00
115  1.1400000000000E+00 -1.6322417686363E-01  1.7816462047551E+00
116  1.1500000000000E+00 -1.6666363934612E-01  1.8192864368062E+00
117  1.1600000000000E+00 -1.6945678297433E-01  1.8508201224318E+00
118  1.1700000000000E+00 -1.7161182058398E-01  1.8755660332336E+00
119  1.1800000000000E+00 -1.7313585409168E-01  1.8928794661526E+00
120  1.1900000000000E+00 -1.7403525651802E-01  1.9021660024430E+00
121  1.2000000000000E+00 -1.7431612079255E-01  1.9028958655738E+00
122  1.2100000000000E+00 -1.7398476999406E-01  1.8946186797438E+00
123  1.2200000000000E+00 -1.7304832165335E-01  1.8769783883103E+00
124  1.2300000000000E+00 -1.7151529647667E-01  1.8497280441387E+00
125  1.2400000000000E+00 -1.6939625934874E-01  1.8127441318942E+00
126  1.2500000000000E+00 -1.6670447772708E-01  1.7660400252602E+00
127  1.2600000000000E+00 -1.6345657949923E-01  1.7097781189855E+00
128  1.2700000000000E+00 -1.5967318906853E-01  1.6442801071107E+00
129  1.2800000000000E+00 -1.5537951681133E-01  1.5700348035921E+00
130  1.2900000000000E+00 -1.5060587308600E-01  1.4877028193528E+00
131  1.3000000000000E+00 -1.4538807368202E-01  1.3981173207160E+00
132  1.3100000000000E+00 -1.3976769893034E-01  1.3022799972798E+00
133  1.3200000000000E+00 -1.3379216361529E-01  1.2013512617136E+00
134  1.3300000000000E+00 -1.2751454934450E-01  1.0966335899529E+00
135  1.3400000000000E+00 -1.2099314511879E-01  9.8954678720339E-01
136  1.3500000000000E+00 -1.1429063540762E-01  8.8159383117635E-01
137  1.3600000000000E+00 -1.0747286814278E-01  7.7431580037869E-01
138  1.3700000000000E+00 -1.0060712757577E-01  6.6923423965567E-01
139  1.3800000000000E+00 -9.3759828967763E-02  5.6777914885308E-01
140  1.3900000000000E+00 -8.6993542926222E-02  4.7120058326235E-01
141  1.4000000000000E+00 -8.0363257031016E-02  3.8046196886637E-01
142  1.4100000000000E+00 -7.3911699281995E-02  2.9611052745195E-01
143  1.4200000000000E+00 -6.7665849740754E-02  2.1819777203258E-01
144  1.4300000000000E+00 -6.1643532255501E-02  1.4653648266443E-01
145  1.4400000000000E+00 -5.5859764620271E-02  8.0923412658705E-02
146  1.4500000000000E+00 -5.0327017914765E-02  2.1145614802630E-02
147  1.4600000000000E+00 -4.5055367338142E-02 -3.3017061115665E-02
148  1.4700000000000E+00 -4.0052609641902E-02 -8.1790857825175E-02
149  1.4800000000000E+00 -3.5324383938871E-02 -1.2540702832687E-01
150  1.4900000000000E+00 -3.0874296738028E-02 -1.6410073915287E-01
151  1.5000000000000E+00 -2.6704048825508E-02 -1.9811001636962E-01
152  1.5100000000000E+00 -2.2813563461293E-02 -2.2767473166640E-01
153  1.5200000000000E+00 -1.9201116166339E-02 -2.5303560169416E-01
154  1.5300000000000E+00 -1.5863463525055E-02 -2.7443326153536E-01
155  1.5400000000000E+00 -1.2795971992855E-02 -2.9210736501593E-01
156  1.5500000000000E+00 -9.9927452895266E-03 -3.0629573882169E-01
157  1.5600000000000E+00 -7.4467500380718E-03 -3.1723358531833E-01
158  1.5700000000000E+00 -5.1499390673357E-03 -3.2515273714243E-01
159  1.5800000000000E+00 -3.0933719115890E-03 -3.3028096410988E-01
160  1.5900000000000E+00 -1.2673320493352E-03 -3.3284133359641E-01
161  1.6000000000000E+00  3.3855952199585E-04 -3.3305162487551E-01
162  1.6100000000000E+00  1.7352347161681E-03 -3.3112379704703E-01
163  1.6200000000000E+00  2.9340731220765E-03 -3.2726351075899E-01
164  1.6300000000000E+00  3.9468013615728E-03 -3.2166970291604E-01
165  1.6400000000000E+00  4.7853972619877E-03 -3.1453421339058E-01
166  1.6500000000000E+00  5.4619990291615E-03 -3.0604146268644E-01
167  1.6600000000000E+00  5.9888195581314E-03 -2.9636817905118E-01
168  1.6700000000000E+00  6.3780659829276E-03 -2.8568317342700E-01
169  1.6800000000000E+00  6.6418645138165E-03 -2.7414716004429E-01
170  1.6900000000000E+00  6.7921905980930E-03 -2.6191262092770E-01
171  1.7000000000000E+00  6.8408043837267E-03 -2.4912371185679E-01
172  1.7100000000000E+00  6.7991914296296E-03 -2.3591620713243E-01
173  1.7200000000000E+00  6.6785086099495E-03 -2.2241748126746E-01
174  1.7300000000000E+00  6.4895349892263E-03 -2.0874652207837E-01
175  1.7400000000000E+00  6.2426281007506E-03 -1.9501398658694E-01
176  1.7500000000000E+00  5.9476837558981E-03 -1.8132225428080E-01
177  1.7600000000000E+00  5.6141018582050E-03 -1.6776554104174E-01
178  1.7700000000000E+00  5.2507568373630E-03 -1.5443004144890E-01
179  1.7800000000000E+00  4.8659696699917E-03 -1.4139402647970E-01
180  1.7900000000000E+00  4.4674869664144E-03 -1.2872803604182E-01
181  1.8000000000000E+00  4.0624619115863E-03 -1.1649503987901E-01
182  1.8100000000000E+00  3.6574392070942E-03 -1.0475062388579E-01
183  1.8200000000000E+00  3.2583430939384E-03 -9.3543182761433E-02
184  1.8300000000000E+00  2.8704683023036E-03 -8.2914119193396E-02
185  1.8400000000000E+00  2.4984736344422E-03 -7.2898046437116E-02
186  1.8500000000000E+00  2.1463779308735E-03 -6.3522992334340E-02
187  1.8600000000000E+00  1.8175581442607E-03 -5.4810602243510E-02
188  1.8700000000000E+00  1.5147510956151E-03 -4.6776374597593E-02
189  1.8800000000000E+00  1.2400406930243E-03 -3.9429577921315E-02
190  1.8900000000000E+00  9.9490279831566E-04 -3.2774245552293E-02
191  1.9000000000000E+00  7.8015731568309E-04 -2.6808388735614E-02
192  1.9100000000000E+00  5.9517292350958E-04 -2.1508456574051E-02
193  1.9200000000000E+00  4.3738186083025E-04 -1.6819497761326E-02
194  1.9300000000000E+00  3.0661781963992E-04 -1.2740012570349E-02
195  1.9400000000000E+00  2.0231789101774E-04 -9.2681061394744E-03
196  1.9500000000000E+00  1.2304541671495E-04 -6.3921454344580E-03
197  1.9600000000000E+00  6.6619936831368E-05 -4.0931157585664E-03
198  1.9700000000000E+00  3.0111415654111E-05 -2.3446816670003E-03
199  1.9800000000000E+00  9.8695580977328E-06 -1.1120359842449E-03
200  1.9900000000000E+00  1.5231797525088E-06 -3.5307705123673E-04
201  2.0000000000000E+00 -6.4556648354281E-08 -3.6593166110934E-05
202  2.0100000000000E+00  4.8366218105182E-08  1.1276931268899E-05
203  2.0200000000000E+00 -3.2004516144717E-09 -3.6530983610948E-06
204  2.03 -0.  0.
205  2.04 -0.  0.
206  2.05 -0. -0.
207  2.06  0.  0.
208  2.07  0.  0.
209  2.08  0.  0.
210  2.09  0.  0.
211  2.10  0.  0.
212  2.11  0.  0.
213  2.12  0.  0.
214  2.13  0.  0.
215  2.14  0.  0.
216  2.15  0.  0.
217  2.16  0.  0.
218  2.17  0.  0.
219  2.18  0.  0.
220  2.19  0.  0.
221  2.20  0.  0.
222  2.21  0.  0.
223  2.22  0.  0.
224  2.23  0.  0.
225  2.24  0.  0.
226  2.25  0.  0.
227  2.26  0.  0.
228  2.27  0.  0.
229  2.28  0.  0.
230  2.29  0.  0.
231  2.30  0.  0.
232  2.31  0.  0.
233  2.32  0.  0.
234  2.33  0.  0.
235  2.34  0.  0.
236  2.35  0.  0.
237  2.36  0.  0.
238  2.37  0.  0.
239  2.38  0.  0.
240  2.39  0.  0.
241  2.40  0.  0.
242  2.41  0.  0.
243  2.42  0.  0.
244  2.43  0.  0.
245  2.44  0.  0.
246  2.45  0.  0.
247  2.46  0.  0.
248  2.47  0.  0.
249  2.48  0.  0.
250  2.49  0.  0.
251  2.50  0.  0.
252  2.51  0.  0.
253  2.52  0.  0.
254  2.53  0.  0.
255  2.54  0.  0.
256  2.55  0.  0.
257  2.56  0.  0.
258  2.57  0.  0.
259  2.58  0.  0.
260  2.59  0.  0.
261  2.60  0.  0.
262  2.61  0.  0.
263  2.62  0.  0.
264  2.63  0.  0.
265  2.64  0.  0.
266  2.65  0.  0.
267  2.66  0.  0.
268  2.67  0.  0.
269  2.68  0.  0.
270  2.69  0.  0.
271  2.70  0.  0.
272  2.71  0.  0.
273  2.72  0.  0.
274  2.73  0.  0.
275  2.74  0.  0.
276  2.75  0.  0.
277  2.76  0.  0.
278  2.77  0.  0.
279  2.78  0.  0.
280  2.79  0.  0.
281  2.80  0.  0.
282  2.81  0.  0.
283  2.82  0.  0.
284  2.83  0.  0.
285  2.84  0.  0.
286  2.85  0.  0.
287  2.86  0.  0.
288  2.87  0.  0.
289  2.88  0.  0.
290  2.89  0.  0.
291  2.90  0.  0.
292  2.91  0.  0.
293  2.92  0.  0.
294  2.93  0.  0.
295  2.94  0.  0.
296  2.95  0.  0.
297  2.96  0.  0.
298  2.97  0.  0.
299  2.98  0.  0.
300  2.99  0.  0.
301  3.00  0.  0.
302  3.01  0.  0.
303  3.02  0.  0.
304  3.03  0.  0.
305  3.04  0.  0.
306  3.05  0.  0.
307  3.06  0.  0.
308  3.07  0.  0.
309  3.08  0.  0.
310  3.09  0.  0.
311  3.10  0.  0.
312  3.11  0.  0.
313  3.12  0.  0.
314  3.13  0.  0.
315  3.14  0.  0.
316  3.15  0.  0.
317  3.16  0.  0.
318  3.17  0.  0.
319  3.18  0.  0.
320  3.19  0.  0.
321  3.20  0.  0.
322  3.21  0.  0.
323  3.22  0.  0.
324  3.23  0.  0.
325  3.24  0.  0.
326  3.25  0.  0.
327  3.26  0.  0.
328  3.27  0.  0.
329  3.28  0.  0.
330  3.29  0.  0.
331  3.30  0.  0.
332  3.31  0.  0.
333  3.32  0.  0.
334  3.33  0.  0.
335  3.34  0.  0.
336  3.35  0.  0.
337  3.36  0.  0.
338  3.37  0.  0.
339  3.38  0.  0.
340  3.39  0.  0.
341  3.40  0.  0.
342  3.41  0.  0.
343  3.42  0.  0.
344  3.43  0.  0.
345  3.44  0.  0.
346  3.45  0.  0.
347  3.46  0.  0.
348  3.47  0.  0.
349  3.48  0.  0.
350  3.49  0.  0.
351  3.50  0.  0.
352  3.51  0.  0.
353  3.52  0.  0.
354  3.53  0.  0.
355  3.54  0.  0.
356  3.55  0.  0.
357  3.56  0.  0.
358  3.57  0.  0.
359  3.58  0.  0.
360  3.59  0.  0.
361  3.60  0.  0.
362  3.61  0.  0.
363  3.62  0.  0.
364  3.63  0.  0.
365  3.64  0.  0.
366  3.65  0.  0.
367  3.66  0.  0.
368  3.67  0.  0.
369  3.68  0.  0.
370  3.69  0.  0.
371  3.70  0.  0.
372  3.71  0.  0.
373  3.72  0.  0.
374  3.73  0.  0.
375  3.74  0.  0.
376  3.75  0.  0.
377  3.76  0.  0.
378  3.77  0.  0.
379  3.78  0.  0.
380  3.79  0.  0.
381  3.80  0.  0.
382  3.81  0.  0.
383  3.82  0.  0.
384  3.83  0.  0.
385  3.84  0.  0.
386  3.85  0.  0.
387  3.86  0.  0.
388  3.87  0.  0.
389  3.88  0.  0.
390  3.89  0.  0.
391  3.90  0.  0.
392  3.91  0.  0.
393  3.92  0.  0.
394  3.93  0.  0.
395  3.94  0.  0.
396  3.95  0.  0.
397  3.96  0.  0.
398  3.97  0.  0.
399  3.98  0.  0.
400  3.99  0.  0.
401  4.00  0.  0.
402  4.01  0.  0.
403  4.02  0.  0.
404  4.03  0.  0.
405  4.04  0.  0.
406  4.05  0.  0.
407  4.06  0.  0.
408  4.07  0.  0.
409  4.08  0.  0.
410  4.09  0.  0.
411  4.10  0.  0.
412  4.11  0.  0.
413  4.12  0.  0.
414  4.13  0.  0.
415  4.14  0.  0.
416  4.15  0.  0.
417  4.16  0.  0.
418  4.17  0.  0.
419  4.18  0.  0.
420  4.19  0.  0.
421  4.20  0.  0.
422  4.21  0.  0.
423  4.22  0.  0.
424  4.23  0.  0.
425  4.24  0.  0.
426  4.25  0.  0.
427  4.26  0.  0.
428  4.27  0.  0.
429  4.28  0.  0.
430  4.29  0.  0.
431  4.30  0.  0.
432  4.31  0.  0.
433  4.32  0.  0.
434  4.33  0.  0.
435  4.34  0.  0.
436  4.35  0.  0.
437  4.36  0.  0.
438  4.37  0.  0.
439  4.38  0.  0.
440  4.39  0.  0.
441  4.40  0.  0.
442  4.41  0.  0.
443  4.42  0.  0.
444  4.43  0.  0.
445  4.44  0.  0.
446  4.45  0.  0.
447  4.46  0.  0.
448  4.47  0.  0.
449  4.48  0.  0.
450  4.49  0.  0.
451  4.50  0.  0.
452  4.51  0.  0.
453  4.52  0.  0.
454  4.53  0.  0.
455  4.54  0.  0.
456  4.55  0.  0.
457  4.56  0.  0.
458  4.57  0.  0.
459  4.58  0.  0.
460  4.59  0.  0.
461  4.60  0.  0.
462  4.61  0.  0.
463  4.62  0.  0.
464  4.63  0.  0.
465  4.64  0.  0.
466  4.65  0.  0.
467  4.66  0.  0.
468  4.67  0.  0.
469  4.68  0.  0.
470  4.69  0.  0.
471  4.70  0.  0.
472  4.71  0.  0.
473  4.72  0.  0.
474  4.73  0.  0.
475  4.74  0.  0.
476  4.75  0.  0.
477  4.76  0.  0.
478  4.77  0.  0.
479  4.78  0.  0.
480  4.79  0.  0.
481  4.80  0.  0.
482  4.81  0.  0.
483  4.82  0.  0.
484  4.83  0.  0.
485  4.84  0.  0.
486  4.85  0.  0.
487  4.86  0.  0.
488  4.87  0.  0.
489  4.88  0.  0.
490  4.89  0.  0.
491  4.90  0.  0.
492  4.91  0.  0.
493  4.92  0.  0.
494  4.93  0.  0.
495  4.94  0.  0.
496  4.95  0.  0.
497  4.96  0.  0.
498  4.97  0.  0.
499  4.98  0.  0.
500  4.99  0.  0.
501  5.00  0.  0.
502  5.01  0.  0.
503  5.02  0.  0.
504  5.03  0.  0.
505  5.04  0.  0.
506  5.05  0.  0.
507  5.06  0.  0.
508  5.07  0.  0.
509  5.08  0.  0.
510  5.09  0.  0.
511  5.10  0.  0.
512  5.11  0.  0.
513  5.12  0.  0.
514  5.13  0.  0.
515  5.14  0.  0.
516  5.15  0.  0.
517  5.16  0.  0.
518  5.17  0.  0.
519  5.18  0.  0.
520  5.19  0.  0.
521  5.20  0.  0.
522  5.21  0.  0.
523  5.22  0.  0.
524  5.23  0.  0.
525  5.24  0.  0.
526  5.25  0.  0.
527  5.26  0.  0.
528  5.27  0.  0.
529  5.28  0.  0.
530  5.29  0.  0.
531  5.30  0.  0.
532  5.31  0.  0.
533  5.32  0.  0.
534  5.33  0.  0.
535  5.34  0.  0.
536  5.35  0.  0.
537  5.36  0.  0.
538  5.37  0.  0.
539  5.38  0.  0.
540  5.39  0.  0.
541  5.40  0.  0.
542  5.41  0.  0.
543  5.42  0.  0.
544  5.43  0.  0.
545  5.44  0.  0.
546  5.45  0.  0.
547  5.46  0.  0.
548  5.47  0.  0.
549  5.48  0.  0.
550  5.49  0.  0.
551  5.50  0.  0.
552  5.51  0.  0.
553  5.52  0.  0.
554  5.53  0.  0.
555  5.54  0.  0.
556  5.55  0.  0.
557  5.56  0.  0.
558  5.57  0.  0.
559  5.58  0.  0.
560  5.59  0.  0.
561  5.60  0.  0.
562  5.61  0.  0.
563  5.62  0.  0.
564  5.63  0.  0.
565  5.64  0.  0.
566  5.65  0.  0.
567  5.66  0.  0.
568  5.67  0.  0.
569  5.68  0.  0.
570  5.69  0.  0.
571  5.70  0.  0.
572  5.71  0.  0.
573  5.72  0.  0.
574  5.73  0.  0.
575  5.74  0.  0.
576  5.75  0.  0.
577  5.76  0.  0.
578  5.77  0.  0.
579  5.78  0.  0.
580  5.79  0.  0.
581  5.80  0.  0.
582  5.81  0.  0.
583  5.82  0.  0.
584  5.83  0.  0.
585  5.84  0.  0.
586  5.85  0.  0.
587  5.86  0.  0.
588  5.87  0.  0.
589  5.88  0.  0.
590  5.89  0.  0.
591  5.90  0.  0.
592  5.91  0.  0.
593  5.92  0.  0.
594  5.93  0.  0.
595  5.94  0.  0.
596  5.95  0.  0.
597  5.96  0.  0.
598  5.97  0.  0.
599  5.98  0.  0.
600  5.99  0.  0.
1                         8.0046496902290E+00  1.1640842837557E-01
1  0.0000000000000E+00 -8.7476137444753E-11  5.4424666995345E-09
2  1.0000000000000E-02  1.5554461497135E-03  8.4919870062645E-04
3  2.0000000000000E-02  6.2160057609653E-03  3.3838100727885E-03
4  3.0000000000000E-02  1.3964358480520E-02  7.5650771235658E-03
5  4.0000000000000E-02  2.4771690983985E-02  1.3329059061384E-02
6  5.0000000000000E-02  3.8597778090129E-02  2.0587601704932E-02
7  6.0000000000000E-02  5.5391096747732E-02  2.9229674468866E-02
8  7.0000000000000E-02  7.5088973301502E-02  3.9123052765240E-02
9  8.0000000000000E-02  9.7617764531089E-02  5.0116319217111E-02
10  9.0000000000000E-02  1.2289307302414E-01  6.2041152072424E-02
11  1.0000000000000E-01  1.5081999748664E-01  7.4714864719979E-02
12  1.1000000000000E-01  1.8129341860853E-01  8.7943156313748E-02
13  1.2000000000000E-01  2.1419832108641E-01  1.0152303027230E-01
14  1.3000000000000E-01  2.4941015235670E-01  1.1524583488925E-01
15  1.4000000000000E-01  2.8679521850927E-01  1.2890037850735E-01
16  1.5000000000000E-01  3.2621111773383E-01  1.4227607070153E-01
17  1.6000000000000E-01  3.6750721149742E-01  1.5516604070041E-01
18  1.7000000000000E-01  4.1052513346316E-01  1.6737018485173E-01
19  1.8000000000000E-01  4.5509933593866E-01  1.7869809629429E-01
20  1.9000000000000E-01  5.0105767338862E-01  1.8897183211076E-01
21  2.0000000000000E-01  5.4822202226369E-01  1.9802847606759E-01
22  2.1000000000000E-01  5.9640893608924E-01  2.0572245854815E-01
23  2.2000000000000E-01  6.4543033442720E-01  2.1192759939461E-01
24  2.3000000000000E-01  6.9509422397604E-01  2.1653884402028E-01
25  2.4000000000000E-01  7.4520544971310E-01  2.1947366826278E-01
26  2.5000000000000E-01  7.9556647361491E-01  2.2067313292498E-01
27  2.6000000000000E-01  8.4597817812021E-01  2.2010257471154E-01
28  2.7000000000000E-01  8.9624069113360E-01  2.1775192620906E-01
29  2.8000000000000E-01  9.4615422900937E-01  2.1363566358328E-01
30  2.9000000000000E-01  9.9551995361294E-01  2.0779238667369E-01
31  3.0000000000000E-01  1.0441408392352E+00  2.0028404205591E-01
32  3.1000000000000E-01  1.0918225448404E+00  1.9119480531582E-01
33  3.2000000000000E-01  1.1383742868645E+00  1.8062964414706E-01
34  3.3000000000000E-01  1.1836097075558E+00  1.6871258885188E-01
35  3.4000000000000E-01  1.2273477336620E+00  1.5558474132041E-01
36  3.5000000000000E-01  1.2694134201340E+00  1.4140205750604E-01
37  3.6000000000000E-01  1.3096387734187E+00  1.2633294175066E-01
38  3.7000000000000E-01  1.3478635488827E+00  1.1055569398284E-01
39  3.8000000000000E-01  1.3839360169173E+00  9.4255852782023E-02
40  3.9000000000000E-01  1.4177136923506E+00  7.7623478541157E-02
41  4.0000000000000E-01  1.4490640219162E+00  6.0850421453110E-02
42  4.1000000000000E-01  1.4778650247120E+00  4.4127618795105E-02
43  4.2000000000000E-01  1.5040058808192E+00  2.7642464994212E-02
44  4.3000000000000E-01  1.5273874635421E+00  1.1576296255067E-02
45  4.4000000000000E-01  1.5479228110712E+00 -3.8979708485011E-03
46  4.5000000000000E-01  1.5655375337604E+00 -1.8618010431403E-02
47  4.6000000000000E-01  1.5801701536428E+00 -3.2434035200928E-02
48  4.7000000000000E-01  1.5917723732817E+00 -4.5210492500845E-02
49  4.8000000000000E-01  1.6003092715603E+00 -5.6827484315291E-02
50  4.9000000000000E-01  1.6057594245510E+00 -6.7181891936576E-02
51  5.0000000000000E-01  1.6081149501632E+00 -7.6188191144215E-02
52  5.1000000000000E-01  1.6073814758488E+00 -8.3778949068930E-02
53  5.2000000000000E-01  1.6035780292300E+00 -8.9904999320702E-02
54  5.3000000000000E-01  1.5967368521080E+00 -9.4535297360845E-02
55  5.4000000000000E-01  1.5869031389063E+00 -9.7656463398938E-02
56  5.5000000000000E-01  1.5741347011802E+00 -9.9272025209414E-02
57  5.6000000000000E-01  1.5585015603990E+00 -9.9401378107972E-02
58  5.7000000000000E-01  1.5400854717558E+00 -9.8078483826778E-02
59  5.8000000000000E-01  1.5189793822826E+00 -9.5350334107542E-02
60  5.9000000000000E-01  1.4952868270447E+00 -9.1275208437290E-02
61  6.0000000000000E-01  1.4691212676469E+00 -8.5920758424728E-02
62  6.1000000000000E-01  1.4406053777012E+00 -7.9361953820718E-02
63  6.2000000000000E-01  1.4098702802847E+00 -7.1678927088636E-02
64  6.3000000000000E-01  1.3770547427453E+00 -6.2954754713727E-02
65  6.4000000000000E-01  1.3423043344973E+00 -5.3273214098469E-02
66  6.5000000000000E-01  1.3057705536777E+00 -4.2716554922573E-02
67  6.6000000000000E-01  1.2676099287213E+00 -3.1363323272524E-02
68  6.7000000000000E-01  1.2279831010385E+00 -1.9286275687426E-02
69  6.8000000000000E-01  1.1870538950615E+00 -6.5504185647691E-03
70  6.9000000000000E-01  1.1449883819543E+00  6.7887938403530E-03
71  7.0000000000000E-01  1.1019539432625E+00  2.0687072245079E-02
72  7.1000000000000E-01  1.0581183407098E+00  3.5112688473856E-02
73  7.2000000000000E-01  1.0136487982420E+00  5.0047630757207E-02
74  7.3000000000000E-01  9.6871110226036E-01  6.5488497697386E-02
75  7.4000000000000E-01  9.2346872579699E-01  8.1447114245768E-02
76  7.5000000000000E-01  8.7808198215420E-01  9.7950857003953E-02
77  7.6000000000000E-01  8.3270721326749E-01  1.1504268018863E-01
78  7.7000000000000E-01  7.8749601775980E-01  1.3278083762174E-01
79  7.8000000000000E-01  7.4259452333562E-01  1.5123830006550E-01
80  7.9000000000000E-01  6.9814270782110E-01  1.7050187106088E-01
81  8.0000000000000E-01  6.5427377279343E-01  1.9067100810071E-01
82  8.1000000000000E-01  6.1111357336217E-01  2.1185635943474E-01
83  8.2000000000000E-01  5.6878010726951E-01  2.3417803003725E-01
84  8.3000000000000E-01  5.2738306606808E-01  2.5776359323813E-01
85  8.4000000000000E-01  4.8702345071572E-01  2.8274586722615E-01
86  8.5000000000000E-01  4.4779325349812E-01  3.0926047806390E-01
87  8.6000000000000E-01  4.0977520775473E-01  3.3744323302522E-01
88  8.7000000000000E-01  3.7304260644002E-01  3.6742732998777E-01
89  8.8000000000000E-01  3.3765919010446E-01  3.9934043031297E-01
90  8.9000000000000E-01  3.0367910442510E-01  4.3330162415552E-01
91  9.0000000000000E-01  2.7114692695729E-01  4.6941831849936E-01
92  9.1000000000000E-01  2.4009776231550E-01  5.0778307946032E-01
93  9.2000000000000E-01  2.1055740452269E-01  5.4847046157579E-01
94  9.3000000000000E-01  1.8254256479541E-01  5.9153385794945E-01
95  9.4000000000000E-01  1.5606116255407E-01  6.3700240630459E-01
96  9.5000000000000E-01  1.3111267696713E-01  6.8487798722629E-01
97  9.6000000000000E-01  1.0768855585315E-01  7.3513235221249E-01
98  9.7000000000000E-01  8.5772678277364E-02  7.8770442060254E-01
99  9.8000000000000E-01  6.5341866691407E-02  8.4249778604109E-01
100  9.9000000000000E-01  4.6366443977271E-02  8.9937847486260E-01
101  1.0000000000000E+00  2.8810830272222E-02  9.5817300063217E-01
102  1.0100000000000E+00  1.2634173973718E-02  1.0186667610271E+00
103  1.0200000000000E+00 -2.2089891439509E-03  1.0806028252385E+00
104  1.0300000000000E+00 -1.5768055221590E-02  1.1436811620424E+00
105  1.0400000000000E+00 -2.8095656967278E-02  1.2075583605512E+00
106  1.0500000000000E+00 -3.9246961023497E-02  1.2718478972806E+00
107  1.0600000000000E+00 -4.9278965772450E-02  1.3361210044331E+00
108  1.0700000000000E+00 -5.8249807626802E-02  1.3999081950164E+00
109  1.0800000000000E+00 -6.6218084123206E-02  1.4627015004238E+00
110  1.0900000000000E+00 -7.3242202341979E-02  1.5239574751509E+00
111  1.1000000000000E+00 -7.9379761304901E-02  1.5831010211986E+00
112  1.1100000000000E+00 -8.4686977042772E-02  1.6395300811151E+00
113  1.1200000000000E+00 -8.9218158959534E-02  1.6926212432878E+00
114  1.1300000000000E+00 -9.3025245936364E-02  1.7417362956663E+00
115  1.1400000000000E+00 -9.6157410299806E-02  1.7862297542443E+00
116  1.1500000000000E+00 -9.8660737306242E-02  1.8254573799738E+00
117  1.1600000000000E+00 -1.0057798715146E-01  1.8587856819281E+00
118  1.1700000000000E+00 -1.0194844567953E-01  1.8856023850501E+00
119  1.1800000000000E+00 -1.0280786892045E-01  1.9053278173078E+00
120  1.1900000000000E+00 -1.0318852530351E-01  1.9174271429375E+00
121  1.2000000000000E+00 -1.0311933786427E-01  1.9214233354946E+00
122  1.2100000000000E+00 -1.0262612693830E-01  1.9169107456143E+00
123  1.2200000000000E+00 -1.0173195172532E-01  1.9035690739174E+00
124  1.2300000000000E+00 -1.0045754664786E-01  1.8811775080284E+00
125  1.2400000000000E+00 -9.8821845619222E-02  1.8496287241826E+00
126  1.2500000000000E+00 -9.6842584148721E-02  1.8089423878250E+00
127  1.2600000000000E+00 -9.4536965582701E-02  1.7592777125673E+00
128  1.2700000000000E+00 -9.1922373730331E-02  1.7009445533770E+00
129  1.2800000000000E+00 -8.9017109583569E-02  1.6344124164372E+00
130  1.2900000000000E+00 -8.5841124771016E-02  1.5603166639540E+00
131  1.3000000000000E+00 -8.2416718789960E-02  1.4794610773884E+00
132  1.3100000000000E+00 -7.8769160876360E-02  1.3928158158513E+00
133  1.3200000000000E+00 -7.4927190534682E-02  1.3015096664465E+00
134  1.3300000000000E+00 -7.0923343270048E-02  1.2068153304196E+00