Yb    ONCVPSP-4.0.1  r_core=   2.00372   1.60588   1.91009   1.40785
70.0000     24.0000      250626    zatom,zion,pspd
8      11   3     4   600     0    pspcod,pspxc,lmax,lloc,mmax,r2well
5.99000000  7.90000000  0.00000000    rchrg fchrg qchrg
2     2     2     2     0    nproj
1     1           extension_switch
0                         6.6580810001446E+00  9.4668074513414E-01
1  0.0000000000000E+00  8.0411288738702E-11 -2.2752587314212E-10
2  1.0000000000000E-02  4.5881608206681E-02 -1.5651891265209E-03
3  2.0000000000000E-02  9.1726878910090E-02 -3.1598992098011E-03
4  3.0000000000000E-02  1.3749933492007E-01 -4.8131158656376E-03
5  4.0000000000000E-02  1.8316222175087E-01 -6.5527598687991E-03
6  5.0000000000000E-02  2.2867837414826E-01 -8.4051692765470E-03
7  6.0000000000000E-02  2.7401008876916E-01 -1.0394598842568E-02
8  7.0000000000000E-02  3.1911900496952E-01 -1.2542742215648E-02
9  8.0000000000000E-02  3.6396599557580E-01 -1.4868282189887E-02
10  9.0000000000000E-02  4.0851106941630E-01 -1.7386473992834E-02
11  1.0000000000000E-01  4.5271328727114E-01 -2.0108766266943E-02
12  1.1000000000000E-01  4.9653069276632E-01 -2.3042464021701E-02
13  1.2000000000000E-01  5.3992025958699E-01 -2.6190437411618E-02
14  1.3000000000000E-01  5.8283785622172E-01 -2.9550879733334E-02
15  1.4000000000000E-01  6.2523822927217E-01 -3.3117117537454E-02
16  1.5000000000000E-01  6.6707500617478E-01 -3.6877475222077E-02
17  1.6000000000000E-01  7.0830071798309E-01 -4.0815195920273E-02
18  1.7000000000000E-01  7.4886684265377E-01 -4.4908419918338E-02
19  1.8000000000000E-01  7.8872386906816E-01 -4.9130221250763E-02
20  1.9000000000000E-01  8.2782138180502E-01 -5.3448702517351E-02
21  2.0000000000000E-01  8.6610816646330E-01 -5.7827147363488E-02
22  2.1000000000000E-01  9.0353233511573E-01 -6.2224229462143E-02
23  2.2000000000000E-01  9.4004147125859E-01 -6.6594276241546E-02
24  2.3000000000000E-01  9.7558279341185E-01 -7.0887585021726E-02
25  2.4000000000000E-01  1.0101033363182E+00 -7.5050788661874E-02
26  2.5000000000000E-01  1.0435501484923E+00 -7.9027267284662E-02
27  2.6000000000000E-01  1.0758705046852E+00 -8.2757602138393E-02
28  2.7000000000000E-01  1.1070121316516E+00 -8.6180067189148E-02
29  2.8000000000000E-01  1.1369234454487E+00 -8.9231153607069E-02
30  2.9000000000000E-01  1.1655537983462E+00 -9.1846121929015E-02
31  3.0000000000000E-01  1.1928537333001E+00 -9.3959576347886E-02
32  3.1000000000000E-01  1.2187752438304E+00 -9.5506055301097E-02
33  3.2000000000000E-01  1.2432720370510E+00 -9.6420632310078E-02
34  3.3000000000000E-01  1.2662997975301E+00 -9.6639520862464E-02
35  3.4000000000000E-01  1.2878164496098E+00 -9.6100677031270E-02
36  3.5000000000000E-01  1.3077824157864E+00 -9.4744393491824E-02
37  3.6000000000000E-01  1.3261608687474E+00 -9.2513878629979E-02
38  3.7000000000000E-01  1.3429179746836E+00 -8.9355814533319E-02
39  3.8000000000000E-01  1.3580231255314E+00 -8.5220887821766E-02
40  3.9000000000000E-01  1.3714491578726E+00 -8.0064287503480E-02
41  4.0000000000000E-01  1.3831725562992E+00 -7.3846164335465E-02
42  4.1000000000000E-01  1.3931736391688E+00 -6.6532046523437E-02
43  4.2000000000000E-01  1.4014367248017E+00 -5.8093207009206E-02
44  4.3000000000000E-01  1.4079502763273E+00 -4.8506978063834E-02
45  4.4000000000000E-01  1.4127070235571E+00 -3.7757009425117E-02
46  4.5000000000000E-01  1.4157040604508E+00 -2.5833466786330E-02
47  4.6000000000000E-01  1.4169429169500E+00 -1.2733168052332E-02
48  4.7000000000000E-01  1.4164296041706E+00  1.5403445752928E-03
49  4.8000000000000E-01  1.4141746321821E+00  1.6976797947195E-02
50  4.9000000000000E-01  1.4101929998421E+00  3.3559247313970E-02
51  5.0000000000000E-01  1.4045041564069E+00  5.1264201522570E-02
52  5.1000000000000E-01  1.3971319348974E+00  7.0061813187568E-02
53  5.2000000000000E-01  1.3881044574584E+00  8.9916132238578E-02
54  5.3000000000000E-01  1.3774540132144E+00  1.1078542052567E-01
55  5.4000000000000E-01  1.3652169093814E+00  1.3262252445988E-01
56  5.5000000000000E-01  1.3514332966535E+00  1.5537530198204E-01
57  5.6000000000000E-01  1.3361469701314E+00  1.7898709949923E-01
58  5.7000000000000E-01  1.3194051472996E+00  2.0339727381044E-01
59  5.8000000000000E-01  1.3012582247877E+00  2.2854175346952E-01
60  5.9000000000000E-01  1.2817595158668E+00  2.5435363351141E-01
61  6.0000000000000E-01  1.2609649708280E+00  2.8076379700193E-01
62  6.1000000000000E-01  1.2389328825700E+00  3.0770155647072E-01
63  6.2000000000000E-01  1.2157235798837E+00  3.3509530795365E-01
64  6.3000000000000E-01  1.1913991110537E+00  3.6287319011318E-01
65  6.4000000000000E-01  1.1660229205145E+00  3.9096374072414E-01
66  6.5000000000000E-01  1.1396595213823E+00  4.1929654271368E-01
67  6.6000000000000E-01  1.1123741667455E+00  4.4780285192937E-01
68  6.7000000000000E-01  1.0842325226311E+00  4.7641619888046E-01
69  6.8000000000000E-01  1.0553003455684E+00  5.0507295685573E-01
70  6.9000000000000E-01  1.0256431676482E+00  5.3371286906603E-01
71  7.0000000000000E-01  9.9532599192496E-01  5.6227952779170E-01
72  7.1000000000000E-01  9.6441300092894E-01  5.9072079892956E-01
73  7.2000000000000E-01  9.3296728094693E-01  6.1898918583291E-01
74  7.3000000000000E-01  9.0105056459662E-01  6.4704212691260E-01
75  7.4000000000000E-01  8.6872299405708E-01  6.7484222211735E-01
76  7.5000000000000E-01  8.3604290713263E-01  7.0235738412948E-01
77  7.6000000000000E-01  8.0306664811773E-01  7.2956091089314E-01
78  7.7000000000000E-01  7.6984840519907E-01  7.5643147692912E-01
79  7.8000000000000E-01  7.3644007588038E-01  7.8295304177616E-01
80  7.9000000000000E-01  7.0289116164638E-01  8.0911467482550E-01
81  8.0000000000000E-01  6.6924869279798E-01  8.3491029677470E-01
82  8.1000000000000E-01  6.3555718409374E-01  8.6033833891011E-01
83  8.2000000000000E-01  6.0185862152377E-01  8.8540132242622E-01
84  8.3000000000000E-01  5.6819248022658E-01  9.1010536099347E-01
85  8.4000000000000E-01  5.3459577323715E-01  9.3445959078732E-01
86  8.5000000000000E-01  5.0110313042963E-01  9.5847553317891E-01
87  8.6000000000000E-01  4.6774690669310E-01  9.8216639625304E-01
88  8.7000000000000E-01  4.3455731805573E-01  1.0055463222541E+00
89  8.8000000000000E-01  4.0156260415428E-01  1.0286295889541E+00
90  8.9000000000000E-01  3.6878921513524E-01  1.0514297737834E+00
91  9.0000000000000E-01  3.3626202077199E-01  1.0739588903532E+00
92  9.1000000000000E-01  3.0400453929294E-01  1.0962265077222E+00
93  9.2000000000000E-01  2.7203918314001E-01  1.1182388634139E+00
94  9.3000000000000E-01  2.4038751861671E-01  1.1399979817612E+00
95  9.4000000000000E-01  2.0907053614412E-01  1.1615008096458E+00
96  9.5000000000000E-01  1.7810892762059E-01  1.1827383820935E+00
97  9.6000000000000E-01  1.4752336718111E-01  1.2036950304874E+00
98  9.7000000000000E-01  1.1733479147537E-01  1.2243476463561E+00
99  9.8000000000000E-01  8.7564675431622E-02  1.2446650137848E+00
100  9.9000000000000E-01  5.8235299348173E-02  1.2646072234739E+00
101  1.0000000000000E+00  2.9370003057634E-02  1.2841251813271E+00
102  1.0100000000000E+00  9.9342284227988E-04  1.3031602241931E+00
103  1.0200000000000E+00 -2.6868293255641E-02  1.3216438549920E+00
104  1.0300000000000E+00 -5.4187296085259E-02  1.3394976089375E+00
105  1.0400000000000E+00 -8.0933876320655E-02  1.3566330619070E+00
106  1.0500000000000E+00 -1.0707633992203E-01  1.3729519912038E+00
107  1.0600000000000E+00 -1.3258092225276E-01  1.3883466980010E+00
108  1.0700000000000E+00 -1.5741174481790E-01  1.4027004996357E+00
109  1.0800000000000E+00 -1.8153081837819E-01  1.4158883986343E+00
110  1.0900000000000E+00 -2.0489809592806E-01  1.4277779338752E+00
111  1.1000000000000E+00 -2.2747157870248E-01  1.4382302176321E+00
112  1.1100000000000E+00 -2.4920747798961E-01  1.4471011603585E+00
113  1.1200000000000E+00 -2.7006043506831E-01  1.4542428829769E+00
114  1.1300000000000E+00 -2.8998380105411E-01  1.4595053140842E+00
115  1.1400000000000E+00 -3.0892997781702E-01  1.4627379668717E+00
116  1.1500000000000E+00 -3.2685082042139E-01  1.4637918876551E+00
117  1.1600000000000E+00 -3.4369810072117E-01  1.4625217646946E+00
118  1.1700000000000E+00 -3.5942403081497E-01  1.4587881824207E+00
119  1.1800000000000E+00 -3.7398184401326E-01  1.4524600022570E+00
120  1.1900000000000E+00 -3.8732642977900E-01  1.4434168468802E+00
121  1.2000000000000E+00 -3.9941501777129E-01  1.4315516600000E+00
122  1.2100000000000E+00 -4.1020790461640E-01  1.4167733084542E+00
123  1.2200000000000E+00 -4.1966921536457E-01  1.3990091876713E+00
124  1.2300000000000E+00 -4.2776768972080E-01  1.3782077851910E+00
125  1.2400000000000E+00 -4.3447748106725E-01  1.3543411499913E+00
126  1.2500000000000E+00 -4.3977895400911E-01  1.3274072078014E+00
127  1.2600000000000E+00 -4.4365946363124E-01  1.2974318542383E+00
128  1.2700000000000E+00 -4.4611409687209E-01  1.2644707485868E+00
129  1.2800000000000E+00 -4.4714635335725E-01  1.2286107211857E+00
130  1.2900000000000E+00 -4.4676873966701E-01  1.1899706966366E+00
131  1.3000000000000E+00 -4.4500324734778E-01  1.1487020234392E+00
132  1.3100000000000E+00 -4.4188168097642E-01  1.1049880880595E+00
133  1.3200000000000E+00 -4.3744579821620E-01  1.0590430777448E+00
134  1.3300000000000E+00 -4.3174721907335E-01  1.0111097416651E+00
135  1.3400000000000E+00 -4.2484705645097E-01  9.6145598408541E-01
136  1.3500000000000E+00 -4.1681521452594E-01  9.1037010605354E-01
137  1.3600000000000E+00 -4.0772929550306E-01  8.5815449367803E-01
138  1.3700000000000E+00 -3.9767304883044E-01  8.0511753118398E-01
139  1.3800000000000E+00 -3.8673429004981E-01  7.5156349574214E-01
140  1.3900000000000E+00 -3.7500220853014E-01  6.9778016584711E-01
141  1.4000000000000E+00 -3.6256398320956E-01  6.4402389280925E-01
142  1.4100000000000E+00 -3.4950055337989E-01  5.9050151483917E-01
143  1.4200000000000E+00 -3.3588338749491E-01  5.3735914893207E-01
144  1.4300000000000E+00 -3.2177993509590E-01  4.8471704631086E-01
145  1.4400000000000E+00 -3.0725877830760E-01  4.3269932889484E-01
146  1.4500000000000E+00 -2.9238945206521E-01  3.8143379944242E-01
147  1.4600000000000E+00 -2.7724214669747E-01  3.3105116695349E-01
148  1.4700000000000E+00 -2.6188736108891E-01  2.8168403003016E-01
149  1.4800000000000E+00 -2.4639554216293E-01  2.3346581599322E-01
150  1.4900000000000E+00 -2.3083671466491E-01  1.8652968931181E-01
151  1.5000000000000E+00 -2.1528010395425E-01  1.4100743634060E-01
152  1.5100000000000E+00 -1.9979375440366E-01  9.7028333231281E-02
153  1.5200000000000E+00 -1.8444414752415E-01  5.4718010977794E-02
154  1.5300000000000E+00 -1.6929582309043E-01  1.4197327446460E-02
155  1.5400000000000E+00 -1.5441100634897E-01 -2.4418744721344E-02
156  1.5500000000000E+00 -1.3984924533356E-01 -6.1022200937741E-02
157  1.5600000000000E+00 -1.2566706144229E-01 -9.5513048903296E-02
158  1.5700000000000E+00 -1.1191761673186E-01 -1.2780030335761E-01
159  1.5800000000000E+00 -9.8650401194207E-02 -1.5780292117854E-01
160  1.5900000000000E+00 -8.5910943134162E-02 -1.8545066711467E-01
161  1.6000000000000E+00 -7.3740545593648E-02 -2.1068490096486E-01
162  1.6100000000000E+00 -6.2176051581092E-02 -2.3345927757122E-01
163  1.6200000000000E+00 -5.1249640599317E-02 -2.5374035184981E-01
164  1.6300000000000E+00 -4.0988658724372E-02 -2.7150808180141E-01
165  1.6400000000000E+00 -3.1415484197298E-02 -2.8675622334831E-01
166  1.6500000000000E+00 -2.2547430173649E-02 -2.9949261183605E-01
167  1.6600000000000E+00 -1.4396685954309E-02 -3.0973932602558E-01
168  1.6700000000000E+00 -6.9702976719495E-03 -3.1753273149096E-01
169  1.6800000000000E+00 -2.7018906123511E-04 -3.2292340140029E-01
170  1.6900000000000E+00  5.7067774450254E-03 -3.2597591387527E-01
171  1.7000000000000E+00  1.0968699407793E-02 -3.2676852621410E-01
172  1.7100000000000E+00  1.5528493347041E-02 -3.2539272741414E-01
173  1.7200000000000E+00  1.9403714860850E-02 -3.2195267167759E-01
174  1.7300000000000E+00  2.2616341122973E-02 -3.1656449663177E-01
175  1.7400000000000E+00  2.5192517329477E-02 -3.0935553106331E-01
176  1.7500000000000E+00  2.7162269161650E-02 -3.0046339861676E-01
177  1.7600000000000E+00  2.8559183159533E-02 -2.9003502301083E-01
178  1.7700000000000E+00  2.9420058109406E-02 -2.7822554472405E-01
179  1.7800000000000E+00  2.9784530229079E-02 -2.6519715767606E-01
180  1.7900000000000E+00  2.9694674391957E-02 -2.5111787217010E-01
181  1.8000000000000E+00  2.9194586257639E-02 -2.3616022022741E-01
182  1.8100000000000E+00  2.8329947652059E-02 -2.2049990966050E-01
183  1.8200000000000E+00  2.7147579508415E-02 -2.0431444062403E-01
184  1.8300000000000E+00  2.5694986105394E-02 -1.8778169609204E-01
185  1.8400000000000E+00  2.4019894595031E-02 -1.7107851861792E-01
186  1.8500000000000E+00  2.2169793873784E-02 -1.5437928592064E-01
187  1.8600000000000E+00  2.0191476863107E-02 -1.3785449787450E-01
188  1.8700000000000E+00  1.8130591807489E-02 -1.2166939184996E-01
189  1.8800000000000E+00  1.6031191428988E-02 -1.0598255612155E-01
190  1.8900000000000E+00  1.3935344967822E-02 -9.0944723999328E-02
191  1.9000000000000E+00  1.1882690437891E-02 -7.6697413861666E-02
192  1.9100000000000E+00  9.9093766318450E-03 -6.3369828430193E-02
193  1.9200000000000E+00  8.0472908502461E-03 -5.1076520795228E-02
194  1.9300000000000E+00  6.3273944993898E-03 -3.9926779119986E-02
195  1.9400000000000E+00  4.7770648204379E-03 -3.0017153968615E-02
196  1.9500000000000E+00  3.4194280707419E-03 -2.1429511905695E-02
197  1.9600000000000E+00  2.2732422956409E-03 -1.4230634468706E-02
198  1.9700000000000E+00  1.3528780817964E-03 -8.4727249557802E-03
199  1.9800000000000E+00  6.6727824160345E-04 -4.1871907006575E-03
200  1.9900000000000E+00  2.2057665051588E-04 -1.3889394873776E-03
201  2.0000000000000E+00  2.4024072806583E-05 -1.5210552682612E-04
202  2.0100000000000E+00 -7.5325173583001E-06  4.7775866431960E-05
203  2.0200000000000E+00  2.3799001853523E-06 -1.5045081930650E-05
204  2.03 -0.  0.
205  2.04 -0.  0.
206  2.05 -0. -0.
207  2.06  0.  0.
208  2.07  0.  0.
209  2.08  0.  0.
210  2.09  0.  0.
211  2.10  0.  0.
212  2.11  0.  0.
213  2.12  0.  0.
214  2.13  0.  0.
215  2.14  0.  0.
216  2.15  0.  0.
217  2.16  0.  0.
218  2.17  0.  0.
219  2.18  0.  0.
220  2.19  0.  0.
221  2.20  0.  0.
222  2.21  0.  0.
223  2.22  0.  0.
224  2.23  0.  0.
225  2.24  0.  0.
226  2.25  0.  0.
227  2.26  0.  0.
228  2.27  0.  0.
229  2.28  0.  0.
230  2.29  0.  0.
231  2.30  0.  0.
232  2.31  0.  0.
233  2.32  0.  0.
234  2.33  0.  0.
235  2.34  0.  0.
236  2.35  0.  0.
237  2.36  0.  0.
238  2.37  0.  0.
239  2.38  0.  0.
240  2.39  0.  0.
241  2.40  0.  0.
242  2.41  0.  0.
243  2.42  0.  0.
244  2.43  0.  0.
245  2.44  0.  0.
246  2.45  0.  0.
247  2.46  0.  0.
248  2.47  0.  0.
249  2.48  0.  0.
250  2.49  0.  0.
251  2.50  0.  0.
252  2.51  0.  0.
253  2.52  0.  0.
254  2.53  0.  0.
255  2.54  0.  0.
256  2.55  0.  0.
257  2.56  0.  0.
258  2.57  0.  0.
259  2.58  0.  0.
260  2.59  0.  0.
261  2.60  0.  0.
262  2.61  0.  0.
263  2.62  0.  0.
264  2.63  0.  0.
265  2.64  0.  0.
266  2.65  0.  0.
267  2.66  0.  0.
268  2.67  0.  0.
269  2.68  0.  0.
270  2.69  0.  0.
271  2.70  0.  0.
272  2.71  0.  0.
273  2.72  0.  0.
274  2.73  0.  0.
275  2.74  0.  0.
276  2.75  0.  0.
277  2.76  0.  0.
278  2.77  0.  0.
279  2.78  0.  0.
280  2.79  0.  0.
281  2.80  0.  0.
282  2.81  0.  0.
283  2.82  0.  0.
284  2.83  0.  0.
285  2.84  0.  0.
286  2.85  0.  0.
287  2.86  0.  0.
288  2.87  0.  0.
289  2.88  0.  0.
290  2.89  0.  0.
291  2.90  0.  0.
292  2.91  0.  0.
293  2.92  0.  0.
294  2.93  0.  0.
295  2.94  0.  0.
296  2.95  0.  0.
297  2.96  0.  0.
298  2.97  0.  0.
299  2.98  0.  0.
300  2.99  0.  0.
301  3.00  0.  0.
302  3.01  0.  0.
303  3.02  0.  0.
304  3.03  0.  0.
305  3.04  0.  0.
306  3.05  0.  0.
307  3.06  0.  0.
308  3.07  0.  0.
309  3.08  0.  0.
310  3.09  0.  0.
311  3.10  0.  0.
312  3.11  0.  0.
313  3.12  0.  0.
314  3.13  0.  0.
315  3.14  0.  0.
316  3.15  0.  0.
317  3.16  0.  0.
318  3.17  0.  0.
319  3.18  0.  0.
320  3.19  0.  0.
321  3.20  0.  0.
322  3.21  0.  0.
323  3.22  0.  0.
324  3.23  0.  0.
325  3.24  0.  0.
326  3.25  0.  0.
327  3.26  0.  0.
328  3.27  0.  0.
329  3.28  0.  0.
330  3.29  0.  0.
331  3.30  0.  0.
332  3.31  0.  0.
333  3.32  0.  0.
334  3.33  0.  0.
335  3.34  0.  0.
336  3.35  0.  0.
337  3.36  0.  0.
338  3.37  0.  0.
339  3.38  0.  0.
340  3.39  0.  0.
341  3.40  0.  0.
342  3.41  0.  0.
343  3.42  0.  0.
344  3.43  0.  0.
345  3.44  0.  0.
346  3.45  0.  0.
347  3.46  0.  0.
348  3.47  0.  0.
349  3.48  0.  0.
350  3.49  0.  0.
351  3.50  0.  0.
352  3.51  0.  0.
353  3.52  0.  0.
354  3.53  0.  0.
355  3.54  0.  0.
356  3.55  0.  0.
357  3.56  0.  0.
358  3.57  0.  0.
359  3.58  0.  0.
360  3.59  0.  0.
361  3.60  0.  0.
362  3.61  0.  0.
363  3.62  0.  0.
364  3.63  0.  0.
365  3.64  0.  0.
366  3.65  0.  0.
367  3.66  0.  0.
368  3.67  0.  0.
369  3.68  0.  0.
370  3.69  0.  0.
371  3.70  0.  0.
372  3.71  0.  0.
373  3.72  0.  0.
374  3.73  0.  0.
375  3.74  0.  0.
376  3.75  0.  0.
377  3.76  0.  0.
378  3.77  0.  0.
379  3.78  0.  0.
380  3.79  0.  0.
381  3.80  0.  0.
382  3.81  0.  0.
383  3.82  0.  0.
384  3.83  0.  0.
385  3.84  0.  0.
386  3.85  0.  0.
387  3.86  0.  0.
388  3.87  0.  0.
389  3.88  0.  0.
390  3.89  0.  0.
391  3.90  0.  0.
392  3.91  0.  0.
393  3.92  0.  0.
394  3.93  0.  0.
395  3.94  0.  0.
396  3.95  0.  0.
397  3.96  0.  0.
398  3.97  0.  0.
399  3.98  0.  0.
400  3.99  0.  0.
401  4.00  0.  0.
402  4.01  0.  0.
403  4.02  0.  0.
404  4.03  0.  0.
405  4.04  0.  0.
406  4.05  0.  0.
407  4.06  0.  0.
408  4.07  0.  0.
409  4.08  0.  0.
410  4.09  0.  0.
411  4.10  0.  0.
412  4.11  0.  0.
413  4.12  0.  0.
414  4.13  0.  0.
415  4.14  0.  0.
416  4.15  0.  0.
417  4.16  0.  0.
418  4.17  0.  0.
419  4.18  0.  0.
420  4.19  0.  0.
421  4.20  0.  0.
422  4.21  0.  0.
423  4.22  0.  0.
424  4.23  0.  0.
425  4.24  0.  0.
426  4.25  0.  0.
427  4.26  0.  0.
428  4.27  0.  0.
429  4.28  0.  0.
430  4.29  0.  0.
431  4.30  0.  0.
432  4.31  0.  0.
433  4.32  0.  0.
434  4.33  0.  0.
435  4.34  0.  0.
436  4.35  0.  0.
437  4.36  0.  0.
438  4.37  0.  0.
439  4.38  0.  0.
440  4.39  0.  0.
441  4.40  0.  0.
442  4.41  0.  0.
443  4.42  0.  0.
444  4.43  0.  0.
445  4.44  0.  0.
446  4.45  0.  0.
447  4.46  0.  0.
448  4.47  0.  0.
449  4.48  0.  0.
450  4.49  0.  0.
451  4.50  0.  0.
452  4.51  0.  0.
453  4.52  0.  0.
454  4.53  0.  0.
455  4.54  0.  0.
456  4.55  0.  0.
457  4.56  0.  0.
458  4.57  0.  0.
459  4.58  0.  0.
460  4.59  0.  0.
461  4.60  0.  0.
462  4.61  0.  0.
463  4.62  0.  0.
464  4.63  0.  0.
465  4.64  0.  0.
466  4.65  0.  0.
467  4.66  0.  0.
468  4.67  0.  0.
469  4.68  0.  0.
470  4.69  0.  0.
471  4.70  0.  0.
472  4.71  0.  0.
473  4.72  0.  0.
474  4.73  0.  0.
475  4.74  0.  0.
476  4.75  0.  0.
477  4.76  0.  0.
478  4.77  0.  0.
479  4.78  0.  0.
480  4.79  0.  0.
481  4.80  0.  0.
482  4.81  0.  0.
483  4.82  0.  0.
484  4.83  0.  0.
485  4.84  0.  0.
486  4.85  0.  0.
487  4.86  0.  0.
488  4.87  0.  0.
489  4.88  0.  0.
490  4.89  0.  0.
491  4.90  0.  0.
492  4.91  0.  0.
493  4.92  0.  0.
494  4.93  0.  0.
495  4.94  0.  0.
496  4.95  0.  0.
497  4.96  0.  0.
498  4.97  0.  0.
499  4.98  0.  0.
500  4.99  0.  0.
501  5.00  0.  0.
502  5.01  0.  0.
503  5.02  0.  0.
504  5.03  0.  0.
505  5.04  0.  0.
506  5.05  0.  0.
507  5.06  0.  0.
508  5.07  0.  0.
509  5.08  0.  0.
510  5.09  0.  0.
511  5.10  0.  0.
512  5.11  0.  0.
513  5.12  0.  0.
514  5.13  0.  0.
515  5.14  0.  0.
516  5.15  0.  0.
517  5.16  0.  0.
518  5.17  0.  0.
519  5.18  0.  0.
520  5.19  0.  0.
521  5.20  0.  0.
522  5.21  0.  0.
523  5.22  0.  0.
524  5.23  0.  0.
525  5.24  0.  0.
526  5.25  0.  0.
527  5.26  0.  0.
528  5.27  0.  0.
529  5.28  0.  0.
530  5.29  0.  0.
531  5.30  0.  0.
532  5.31  0.  0.
533  5.32  0.  0.
534  5.33  0.  0.
535  5.34  0.  0.
536  5.35  0.  0.
537  5.36  0.  0.
538  5.37  0.  0.
539  5.38  0.  0.
540  5.39  0.  0.
541  5.40  0.  0.
542  5.41  0.  0.
543  5.42  0.  0.
544  5.43  0.  0.
545  5.44  0.  0.
546  5.45  0.  0.
547  5.46  0.  0.
548  5.47  0.  0.
549  5.48  0.  0.
550  5.49  0.  0.
551  5.50  0.  0.
552  5.51  0.  0.
553  5.52  0.  0.
554  5.53  0.  0.
555  5.54  0.  0.
556  5.55  0.  0.
557  5.56  0.  0.
558  5.57  0.  0.
559  5.58  0.  0.
560  5.59  0.  0.
561  5.60  0.  0.
562  5.61  0.  0.
563  5.62  0.  0.
564  5.63  0.  0.
565  5.64  0.  0.
566  5.65  0.  0.
567  5.66  0.  0.
568  5.67  0.  0.
569  5.68  0.  0.
570  5.69  0.  0.
571  5.70  0.  0.
572  5.71  0.  0.
573  5.72  0.  0.
574  5.73  0.  0.
575  5.74  0.  0.
576  5.75  0.  0.
577  5.76  0.  0.
578  5.77  0.  0.
579  5.78  0.  0.
580  5.79  0.  0.
581  5.80  0.  0.
582  5.81  0.  0.
583  5.82  0.  0.
584  5.83  0.  0.
585  5.84  0.  0.
586  5.85  0.  0.
587  5.86  0.  0.
588  5.87  0.  0.
589  5.88  0.  0.
590  5.89  0.  0.
591  5.90  0.  0.
592  5.91  0.  0.
593  5.92  0.  0.
594  5.93  0.  0.
595  5.94  0.  0.
596  5.95  0.  0.
597  5.96  0.  0.
598  5.97  0.  0.
599  5.98  0.  0.
600  5.99  0.  0.
1                         6.2001429491227E+00  5.3453619816881E-01
1  0.0000000000000E+00 -1.6089385379559E-10 -7.2934717987305E-10
2  1.0000000000000E-02  1.2367590331734E-03 -8.9427250264839E-04
3  2.0000000000000E-02  4.9429244084701E-03 -3.5685458738948E-03
4  3.0000000000000E-02  1.1106171614521E-02 -7.9972586344287E-03
5  4.0000000000000E-02  1.9705995455332E-02 -1.4138044453453E-02
6  5.0000000000000E-02  3.0713763945110E-02 -2.1932085288802E-02
7  6.0000000000000E-02  4.4092794564175E-02 -3.1304603629344E-02
8  7.0000000000000E-02  5.9798453638357E-02 -4.2165491617129E-02
9  8.0000000000000E-02  7.7778279765143E-02 -5.4410074097432E-02
10  9.0000000000000E-02  9.7972132329855E-02 -6.7920001849554E-02
11  1.0000000000000E-01  1.2031236622761E-01 -8.2564270382626E-02
12  1.1000000000000E-01  1.4472403392594E-01 -9.8200358732680E-02
13  1.2000000000000E-01  1.7112511596447E-01 -1.1467548166965E-01
14  1.3000000000000E-01  1.9942678088944E-01 -1.3182794761706E-01
15  1.4000000000000E-01  2.2953367546049E-01 -1.4948861341213E-01
16  1.5000000000000E-01  2.6134424574621E-01 -1.6748242579868E-01
17  1.6000000000000E-01  2.9475108944478E-01 -1.8563003826786E-01
18  1.7000000000000E-01  3.2964133943154E-01 -2.0374949055990E-01
19  1.8000000000000E-01  3.6589707815096E-01 -2.2165793683914E-01
20  1.9000000000000E-01  4.0339578204393E-01 -2.3917340727993E-01
21  2.0000000000000E-01  4.4201079474053E-01 -2.5611658658443E-01
22  2.1000000000000E-01  4.8161182726320E-01 -2.7231259182428E-01
23  2.2000000000000E-01  5.2206548298628E-01 -2.8759273099359E-01
24  2.3000000000000E-01  5.6323580459588E-01 -3.0179622281130E-01
25  2.4000000000000E-01  6.0498483980215E-01 -3.1477185765438E-01
26  2.5000000000000E-01  6.4717322208517E-01 -3.2637957907055E-01
27  2.6000000000000E-01  6.8966076231902E-01 -3.3649196514191E-01
28  2.7000000000000E-01  7.3230704672783E-01 -3.4499558907914E-01
29  2.8000000000000E-01  7.7497203629389E-01 -3.5179223884179E-01
30  2.9000000000000E-01  8.1751666247237E-01 -3.5679997632651E-01
31  3.0000000000000E-01  8.5980341387879E-01 -3.5995401775535E-01
32  3.1000000000000E-01  9.0169690851293E-01 -3.6120741833902E-01
33  3.2000000000000E-01  9.4306444607198E-01 -3.6053154608919E-01
34  3.3000000000000E-01  9.8377653499255E-01 -3.5791633180203E-01
35  3.4000000000000E-01  1.0237073890473E+00 -3.5337028472238E-01
36  3.5000000000000E-01  1.0627353886090E+00 -3.4692026620223E-01
37  3.6000000000000E-01  1.1007435020816E+00 -3.3861101676195E-01
38  3.7000000000000E-01  1.1376196634803E+00 -3.2850443531163E-01
39  3.8000000000000E-01  1.1732571027143E+00 -3.1667861285178E-01
40  3.9000000000000E-01  1.2075546257837E+00 -3.0322662669574E-01
41  4.0000000000000E-01  1.2404168428255E+00 -2.8825510508762E-01
42  4.1000000000000E-01  1.2717543427364E+00 -2.7188257596590E-01
43  4.2000000000000E-01  1.3014838139327E+00 -2.5423761747976E-01
44  4.3000000000000E-01  1.3295281116764E+00 -2.3545683163425E-01
45  4.4000000000000E-01  1.3558162732820E+00 -2.1568266604889E-01
46  4.5000000000000E-01  1.3802834833984E+00 -1.9506111219289E-01
47  4.6000000000000E-01  1.4028709924284E+00 -1.7373931153440E-01
48  4.7000000000000E-01  1.4235259919718E+00 -1.5186310374515E-01
49  4.8000000000000E-01  1.4422014519539E+00 -1.2957455336601E-01
50  4.9000000000000E-01  1.4588559248006E+00 -1.0700949310537E-01
51  5.0000000000000E-01  1.4734533226339E+00 -8.4295123153819E-02
52  5.1000000000000E-01  1.4859626739705E+00 -6.1547706509143E-02
53  5.2000000000000E-01  1.4963578667979E+00 -3.8870400276662E-02
54  5.3000000000000E-01  1.5046173851651E+00 -1.6351262213474E-02
55  5.4000000000000E-01  1.5107240465478E+00  5.9385295970075E-03
56  5.5000000000000E-01  1.5146647472289E+00  2.7946208125781E-02
57  5.6000000000000E-01  1.5164302227624E+00  4.9638666775208E-02
58  5.7000000000000E-01  1.5160148302696E+00  7.1003397112499E-02
59  5.8000000000000E-01  1.5134163588427E+00  9.2049089369242E-02
60  5.9000000000000E-01  1.5086358737196E+00  1.1280587475098E-01
61  6.0000000000000E-01  1.5016775991419E+00  1.3332519376126E-01
62  6.1000000000000E-01  1.4925488439290E+00  1.5367928036142E-01
63  6.2000000000000E-01  1.4812599728206E+00  1.7396025777880E-01
64  6.3000000000000E-01  1.4678244255500E+00  1.9427884805041E-01
65  6.4000000000000E-01  1.4522587844607E+00  2.1476270384711E-01
66  6.5000000000000E-01  1.4345828902620E+00  2.3555437765750E-01
67  6.6000000000000E-01  1.4148200042804E+00  2.5680894990897E-01
68  6.7000000000000E-01  1.3929970143125E+00  2.7869134394931E-01
69  6.8000000000000E-01  1.3691446799555E+00  3.0137336189065E-01
70  6.9000000000000E-01  1.3432979121069E+00  3.2503048101042E-01
71  7.0000000000000E-01  1.3154960802085E+00  3.4983845559986E-01
72  7.1000000000000E-01  1.2857833397919E+00  3.7596977374134E-01
73  7.2000000000000E-01  1.2542089719823E+00  4.0359002238246E-01
74  7.3000000000000E-01  1.2208277258595E+00  4.3285421716565E-01
75  7.4000000000000E-01  1.1857001539821E+00  4.6390315569046E-01
76  7.5000000000000E-01  1.1488929309624E+00  4.9685985416699E-01
77  7.6000000000000E-01  1.1104791447608E+00  5.3182612771211E-01
78  7.7000000000000E-01  1.0705385503521E+00  5.6887937381564E-01
79  7.8000000000000E-01  1.0291577756121E+00  6.0806961674427E-01
80  7.9000000000000E-01  9.8643046968597E-01  6.4941686786405E-01
81  8.0000000000000E-01  9.4245738472478E-01  6.9290885306696E-01
82  8.1000000000000E-01  8.9734638271172E-01  7.3849915373276E-01
83  8.2000000000000E-01  8.5121236013237E-01  7.8610580199906E-01
84  8.3000000000000E-01  8.0417708445976E-01  8.3561036463681E-01
85  8.4000000000000E-01  7.5636893780689E-01  8.8685754263031E-01
86  8.5000000000000E-01  7.0792256462372E-01  9.3965530575504E-01
87  8.6000000000000E-01  6.5897842195631E-01  9.9377557316343E-01
88  8.7000000000000E-01  6.0968223251329E-01  1.0489554423661E+00
89  8.8000000000000E-01  5.6018434256689E-01  1.1048989601882E+00
90  8.9000000000000E-01  5.1063898851865E-01  1.1612794204433E+00
91  9.0000000000000E-01  4.6120347774672E-01  1.2177421643614E+00
92  9.1000000000000E-01  4.1203729108768E-01  1.2739078514035E+00
93  9.2000000000000E-01  3.6330111595193E-01  1.3293761601430E+00
94  9.3000000000000E-01  3.1515582059439E-01  1.3837298715636E+00
95  9.4000000000000E-01  2.6776138142535E-01  1.4365392805514E+00
96  9.5000000000000E-01  2.2127577641733E-01  1.4873668756864E+00
97  9.6000000000000E-01  1.7585385861512E-01  1.5357722227926E+00
98  9.7000000000000E-01  1.3164622445908E-01  1.5813169841777E+00
99  9.8000000000000E-01  8.8798092066904E-02  1.6235700031817E+00
100  9.9000000000000E-01  4.7448204769039E-02  1.6621123826125E+00
101  1.0000000000000E+00  7.7277750453487E-03  1.6965424859121E+00
102  1.0100000000000E+00 -3.0240516438498E-02  1.7264807914884E+00
103  1.0200000000000E+00 -6.6343452747689E-02  1.7515745335422E+00
104  1.0300000000000E+00 -1.0047813064646E-01  1.7715020668763E+00
105  1.0400000000000E+00 -1.3255271704434E-01  1.7859768985285E+00
106  1.0500000000000E+00 -1.6248710193416E-01  1.7947513355086E+00
107  1.0600000000000E+00 -1.9021343965939E-01  1.7976197053345E+00
108  1.0700000000000E+00 -2.1567657237416E-01  1.7944211142944E+00
109  1.0800000000000E+00 -2.3883433174392E-01  1.7850417172145E+00
110  1.0900000000000E+00 -2.5965771724574E-01  1.7694164818406E+00
111  1.1000000000000E+00 -2.7813095179707E-01  1.7475304404487E+00
112  1.1100000000000E+00 -2.9425141783528E-01  1.7194194308316E+00
113  1.1200000000000E+00 -3.0802947931301E-01  1.6851703380404E+00
114  1.1300000000000E+00 -3.1948819731513E-01  1.6449208569814E+00
115  1.1400000000000E+00 -3.2866294907264E-01  1.5988588038721E+00
116  1.1500000000000E+00 -3.3560096198097E-01  1.5472210113781E+00
117  1.1600000000000E+00 -3.4036077575899E-01  1.4902918477055E+00
118  1.1700000000000E+00 -3.4301164704013E-01  1.4284014037122E+00
119  1.1800000000000E+00 -3.4363291140019E-01  1.3619233939569E+00
120  1.1900000000000E+00 -3.4231331802996E-01  1.2912728172327E+00
121  1.2000000000000E+00 -3.3915035189090E-01  1.2169034192915E+00
122  1.2100000000000E+00 -3.3424955717117E-01  1.1393049948135E+00
123  1.2200000000000E+00 -3.2772387414810E-01  1.0590005570920E+00
124  1.2300000000000E+00 -3.1969299906946E-01  9.7654339196929E-01
125  1.2400000000000E+00 -3.1028277335213E-01  8.9251399716645E-01
126  1.2500000000000E+00 -2.9962460421780E-01  8.0751688909410E-01
127  1.2600000000000E+00 -2.8785491373258E-01  7.2217723607065E-01
128  1.2700000000000E+00 -2.7511460711834E-01  6.3713724974797E-01
129  1.2800000000000E+00 -2.6154854405680E-01  5.5305223501825E-01
130  1.2900000000000E+00 -2.4730498845088E-01  4.7058616250466E-01
131  1.3000000000000E+00 -2.3253500276433E-01  3.9040658703124E-01
132  1.3100000000000E+00 -2.1739174254451E-01  3.1317868986541E-01
133  1.3200000000000E+00 -2.0202959495705E-01  2.3955817166430E-01
134  1.3300000000000E+00 -1.8660309217265E-01  1.7018266715738E-01